------------------------------------------------------------
          Invoking FHI-aims ...

          When using FHI-aims, please cite the following reference:

            Volker Blum, Ralf Gehrke, Felix Hanke, Paula Havu,
            Ville Havu, Xinguo Ren, Karsten Reuter, and Matthias Scheffler,
            'Ab Initio Molecular Simulations with Numeric Atom-Centered Orbitals',
            Computer Physics Communications 180, 2175-2196 (2009)

          In addition, many other developments in FHI-aims are likely important for
          your particular application. If so, please cite them. A partial list of references
          is written at the end of this file. Thank you for giving credit to the authors
          of these developments.

          For general information about FHI-aims please find us at

            https://fhi-aims.org

          Online tutorials can be found at

            https://fhi-aims-club.gitlab.io/tutorials/tutorials-overview/

          For any questions about FHI-aims, please visit our slack channel at

            https://fhi-aims.slack.com

          and our main development and support site at

            https://aims-git.rz-berlin.mpg.de .

          The latter site, in particular, has a wiki to collect information, as well
          as an issue tracker to log discussions, suggest improvements, and report issues
          or bugs. https://aims-git.rz-berlin.mpg.de is also the main development site
          of the project and all new and updated code versions can be obtained there.
          Please send an email to aims-coordinators@fhi-berlin.mpg.de and we will add
          you to these sites. They are for you and everyone is welcome there.

------------------------------------------------------------



  Date     :  20240624, Time     :  151409.243
  Time zero on CPU 1             :   0.334114000000000E+00  s.
  Internal wall clock time zero  :           488474049.243  s.

  FHI-aims created a unique identifier for this run for later identification
  aims_uuid : CB56F474-9049-4046-AD95-5ABF5FBAC4C8

  Build configuration of the current instance of FHI-aims
  -------------------------------------------------------
  FHI-aims version      : 240507
  Commit number         : f9a188a83
  CMake host system     : Linux-4.12.14-122.201-default
  CMake version         : 3.18.4
  Fortran compiler      : /mpcdf/soft/SLE_12/packages/x86_64/intel_oneapi/2022.2/mpi/2021.6.0/bin/mpiifort (Intel) version 20.2.6.20220226
  Fortran compiler flags: -O3 -ip -fp-model precise
  C compiler            : /mpcdf/soft/SLE_12/packages/x86_64/intel_oneapi/2022.2/mpi/2021.6.0/bin/mpiicc (Intel) version 20.2.6.20220226
  C compiler flags      : -O3 -ip -fp-model precise -std=gnu99
  C++ compiler          : /mpcdf/soft/SLE_12/packages/x86_64/intel/2021.6.0/bin/icpc (Intel) version 20.2.6.20220226
  C++ compiler flags    : -O3 -ip -fp-model precise
  HIP compiler          :
  HIP compiler flags    :
  HIP GPU arch          :
  Using MPI
  Using ScaLAPACK
  Using LibXC
  Using i-PI
  Using RLSY
  Linking against: /mpcdf/soft/SLE_12/packages/x86_64/intel_oneapi/2022.2/mkl/latest/lib/intel64/libmkl_intel_lp64.so
                   /mpcdf/soft/SLE_12/packages/x86_64/intel_oneapi/2022.2/mkl/latest/lib/intel64/libmkl_sequential.so
                   /mpcdf/soft/SLE_12/packages/x86_64/intel_oneapi/2022.2/mkl/latest/lib/intel64/libmkl_core.so
                   /mpcdf/soft/SLE_12/packages/x86_64/intel_oneapi/2022.2/mkl/latest/lib/intel64/libmkl_blacs_intelmpi_lp64.so
                   /mpcdf/soft/SLE_12/packages/x86_64/intel_oneapi/2022.2/mkl/latest/lib/intel64/libmkl_scalapack_lp64.so

  Using       80 parallel tasks.
  Task        0 on host co1488 reporting.
  Task        1 on host co1488 reporting.
  Task        2 on host co1488 reporting.
  Task        3 on host co1488 reporting.
  Task        4 on host co1488 reporting.
  Task        5 on host co1488 reporting.
  Task        6 on host co1488 reporting.
  Task        7 on host co1488 reporting.
  Task        8 on host co1488 reporting.
  Task        9 on host co1488 reporting.
  Task       10 on host co1488 reporting.
  Task       11 on host co1488 reporting.
  Task       12 on host co1488 reporting.
  Task       13 on host co1488 reporting.
  Task       14 on host co1488 reporting.
  Task       15 on host co1488 reporting.
  Task       16 on host co1488 reporting.
  Task       17 on host co1488 reporting.
  Task       18 on host co1488 reporting.
  Task       19 on host co1488 reporting.
  Task       20 on host co1488 reporting.
  Task       21 on host co1488 reporting.
  Task       22 on host co1488 reporting.
  Task       23 on host co1488 reporting.
  Task       24 on host co1488 reporting.
  Task       25 on host co1488 reporting.
  Task       26 on host co1488 reporting.
  Task       27 on host co1488 reporting.
  Task       28 on host co1488 reporting.
  Task       29 on host co1488 reporting.
  Task       30 on host co1488 reporting.
  Task       31 on host co1488 reporting.
  Task       32 on host co1488 reporting.
  Task       33 on host co1488 reporting.
  Task       34 on host co1488 reporting.
  Task       35 on host co1488 reporting.
  Task       36 on host co1488 reporting.
  Task       37 on host co1488 reporting.
  Task       38 on host co1488 reporting.
  Task       39 on host co1488 reporting.
  Task       40 on host co1489 reporting.
  Task       41 on host co1489 reporting.
  Task       42 on host co1489 reporting.
  Task       43 on host co1489 reporting.
  Task       44 on host co1489 reporting.
  Task       45 on host co1489 reporting.
  Task       46 on host co1489 reporting.
  Task       47 on host co1489 reporting.
  Task       48 on host co1489 reporting.
  Task       49 on host co1489 reporting.
  Task       50 on host co1489 reporting.
  Task       51 on host co1489 reporting.
  Task       52 on host co1489 reporting.
  Task       53 on host co1489 reporting.
  Task       54 on host co1489 reporting.
  Task       55 on host co1489 reporting.
  Task       56 on host co1489 reporting.
  Task       57 on host co1489 reporting.
  Task       58 on host co1489 reporting.
  Task       59 on host co1489 reporting.
  Task       60 on host co1489 reporting.
  Task       61 on host co1489 reporting.
  Task       62 on host co1489 reporting.
  Task       63 on host co1489 reporting.
  Task       64 on host co1489 reporting.
  Task       65 on host co1489 reporting.
  Task       66 on host co1489 reporting.
  Task       67 on host co1489 reporting.
  Task       68 on host co1489 reporting.
  Task       69 on host co1489 reporting.
  Task       70 on host co1489 reporting.
  Task       71 on host co1489 reporting.
  Task       72 on host co1489 reporting.
  Task       73 on host co1489 reporting.
  Task       74 on host co1489 reporting.
  Task       75 on host co1489 reporting.
  Task       76 on host co1489 reporting.
  Task       77 on host co1489 reporting.
  Task       78 on host co1489 reporting.
  Task       79 on host co1489 reporting.

  Memory overcommitment is allowed on your operating system.

  Obtaining array dimensions for all initial allocations:
  
  -----------------------------------------------------------------------
  Parsing control.in (first pass over file, find array dimensions only).
  The contents of control.in will be repeated verbatim below
  unless switched off by setting 'verbatim_writeout .false.' .
  in the first line of control.in .
  -----------------------------------------------------------------------
  
  xc                 pbe
  relativistic       atomic_zora scalar
  k_grid 4 4 1
  spin               none
  charge             0.
  # use_dipole_correction: for surface slab calculations
  use_dipole_correction
  
  # elsi_restart read_and_write 1
  ri_density_restart write
  ri_full_output .True.
  ri_output_density_only .True.
  default_max_l_prodbas 6
  default_prodbas_acc 1e-4
  # wave_threshold default: 1e-6 for no output, 1e-8 for output
  wave_threshold 1e-6
  
  
  
  ################################################################################
  #
  #  FHI-aims code project
  #  VB, Fritz-Haber Institut, 2009
  #
  #  Suggested "light" defaults for B atom (to be pasted into control.in file)
  #  Be sure to double-check any results obtained with these settings for post-processing,
  #  e.g., with the "tight" defaults and larger basis sets.
  #
  ################################################################################
    species        B
  #     global species definitions
      nucleus             5
      mass                10.811
  #
      l_hartree           4
  #
      cut_pot             3.5  1.5  1.0
      basis_dep_cutoff    1e-4
  #
      radial_base         32 5.0
      radial_multiplier   1
      angular_grids       specified
        division   0.3742  110
        division   0.5197  194
        division   0.5753  302
  #      division   0.7664  434
  #      division   0.8392  770
  #      division   1.6522  974
  #      outer_grid   974
        outer_grid   302
  ################################################################################
  #
  #  Definition of "minimal" basis
  #
  ################################################################################
  #     valence basis states
      valence      2  s   2.
      valence      2  p   1.
  #     ion occupancy
      ion_occ      2  s   1.
  ################################################################################
  #
  #  Suggested additional basis functions. For production calculations,
  #  uncomment them one after another (the most important basis functions are
  #  listed first).
  #
  #  Constructed for dimers: 1.25 A, 1.625 A, 2.5 A, 3.5 A
  #
  ################################################################################
  #  "First tier" - improvements: -710.52 meV to -92.39 meV
       hydro 2 p 1.4
       hydro 3 d 4.8
       hydro 2 s 4
  #  "Second tier" - improvements: -33.88 meV to -2.20 meV
  #     hydro 4 f 7.8
  #     hydro 3 p 4.2
  #     hydro 3 s 3.3
  #     hydro 5 g 11.2
  #     hydro 3 d 5.4
  #  "Third tier" - improvements: -1.28 meV to -0.36 meV
  #     hydro 2 p 4.7
  #     hydro 2 s 8.4
  #     hydro 4 d 5.8
  #  "Fourth tier" - improvements: -0.25 meV to -0.12 meV
  #     hydro 3 p 2.2
  #     hydro 3 s 3
  #     hydro 4 f 9.8
  #     hydro 5 g 12.8
  #     hydro 4 d 10
  #  Further functions
  #     hydro 4 f 14
  #     hydro 3 p 12.4
  
  
  
  
  ################################################################################
  #
  #  FHI-aims code project
  #  VB, Fritz-Haber Institut, 2009
  #
  #  Suggested "light" defaults for N atom (to be pasted into control.in file)
  #  Be sure to double-check any results obtained with these settings for post-processing,
  #  e.g., with the "tight" defaults and larger basis sets.
  #
  ################################################################################
    species        N
  #     global species definitions
      nucleus             7
      mass                14.0067
  #
      l_hartree           4
  #
      cut_pot             3.5  1.5  1.0
      basis_dep_cutoff    1e-4
  #
      radial_base         35 5.0
      radial_multiplier   1
      angular_grids       specified
        division   0.2599   50
        division   0.4601  110
        division   0.5885  194
        division   0.6503  302
  #      division   0.6939  434
  #      division   0.7396  590
  #      division   0.7632  770
  #      division   0.8122  974
  #      division   1.1604 1202
  #      outer_grid  974
        outer_grid  302
  ################################################################################
  #
  #  Definition of "minimal" basis
  #
  ################################################################################
  #     valence basis states
      valence      2  s   2.
      valence      2  p   3.
  #     ion occupancy
      ion_occ      2  s   1.
      ion_occ      2  p   2.
  ################################################################################
  #
  #  Suggested additional basis functions. For production calculations,
  #  uncomment them one after another (the most important basis functions are
  #  listed first).
  #
  #  Constructed for dimers: 1.0 A, 1.1 A, 1.5 A, 2.0 A, 3.0 A
  #
  ################################################################################
  #  "First tier" - improvements: -1193.42 meV to -220.60 meV
       hydro 2 p 1.8
       hydro 3 d 6.8
       hydro 3 s 5.8
  #  "Second tier" - improvements: -80.21 meV to -6.86 meV
  #     hydro 4 f 10.8
  #     hydro 3 p 5.8
  #     hydro 1 s 0.8
  #     hydro 5 g 16
  #     hydro 3 d 4.9
  #  "Third tier" - improvements: -4.29 meV to -0.53 meV
  #     hydro 3 s 16
  #     ionic 2 p auto
  #     hydro 3 d 6.6
  #     hydro 4 f 11.6
  #  "Fourth tier" - improvements: -0.75 meV to -0.25 meV
  #     hydro 2 p 4.5
  #     hydro 2 s 2.4
  #     hydro 5 g 14.4
  #     hydro 4 d 14.4
  #     hydro 4 f 16.8
  # Further basis functions - -0.21 meV and below
  #     hydro 3 p 14.8
  #     hydro 3 s 4.4
  #     hydro 3 d 19.6
  #     hydro 5 g 12.8
  
  
  
  -----------------------------------------------------------------------
  Completed first pass over input file control.in .
  -----------------------------------------------------------------------
  
  
  -----------------------------------------------------------------------
  Parsing geometry.in (first pass over file, find array dimensions only).
  The contents of geometry.in will be repeated verbatim below
  unless switched off by setting 'verbatim_writeout .false.' .
  in the first line of geometry.in .
  -----------------------------------------------------------------------
  
  #=======================================================
  # FHI-aims file: /u/zklou/projects/salted/2406ppr/hBN/inter_3x3/qmdata/data/geoms/1.in
  # Created using the Atomic Simulation Environment (ASE)
  # Tue Jun  4 23:52:37 2024
  #=======================================================
  lattice_vector 7.5372846899999999 0.0000000000000000 0.0000000000000000
  lattice_vector 3.7686423450000004 6.5274800170955167 0.0000000000000000
  lattice_vector 0.0000000000000000 0.0000000000000000 100.0000000000000000
  atom 0.3705579100000000 0.2473704800000000 48.2992996700000035 B
  atom 1.6095772500000001 0.9547218400000000 48.2581168600000012 N
  atom 1.6159057299999999 2.4081635399999999 48.2079331799999977 B
  atom 2.9119653599999999 3.0698829299999999 48.2878556100000011 N
  atom 2.8956586999999998 4.5615302000000000 48.2440882300000027 B
  atom 4.1293460199999998 5.3039025700000000 48.2638369599999990 N
  atom 2.8881104600000000 0.1938985500000000 48.2440506299999967 B
  atom 4.1430932000000000 0.9232970900000000 48.2499874299999973 N
  atom 4.2173979299999997 2.3711632800000002 48.1983814100000032 B
  atom 5.4071077100000000 3.1416821000000001 48.2551150000000035 N
  atom 5.3806743399999997 4.6351060500000001 48.2007835599999979 B
  atom 6.6326673800000000 5.2504015500000003 48.2267967900000016 N
  atom 5.4053081499999998 0.2630631700000000 48.1892927499999999 B
  atom 6.6474325199999997 0.9384750900000000 48.2015045899999990 N
  atom 6.7330167999999997 2.4143313599999998 48.2139293400000000 B
  atom 7.9266260099999997 3.1155188400000000 48.3035762299999973 N
  atom 7.9555633900000000 4.6581204200000004 48.2273027999999968 B
  atom 9.2253522599999993 5.2615803799999998 48.1788165999999975 N
  atom 9.0841544899999995 6.1785188700000004 51.7716219499999966 B
  atom 7.8503793200000000 5.5146850199999999 51.7872999300000032 N
  atom 7.8845949199999996 4.0607983200000000 51.8183023699999978 B
  atom 6.6370712100000002 3.3247108900000000 51.7904180499999995 N
  atom 6.5279048399999997 1.7851897999999999 51.7710008900000034 B
  atom 5.2782362300000001 1.0908498900000001 51.7545641700000019 N
  atom 6.5798080399999996 6.1874281399999997 51.7757480400000034 B
  atom 5.2995848700000003 5.4055075700000002 51.7938697100000027 N
  atom 5.2309886600000004 4.0013091999999997 51.7245426499999965 B
  atom 4.0491092499999999 3.2814368300000001 51.7599493399999986 N
  atom 4.0732056500000002 1.8159916100000000 51.6999269599999991 B
  atom 2.8597846800000002 1.0895018200000000 51.7321038500000014 N
  atom 4.0728182700000000 6.1598865399999996 51.7378686699999975 B
  atom 10.3689510600000006 5.4887526299999996 51.7627912600000002 N
  atom 2.8448302999999999 3.9396424600000000 51.7615744599999985 B
  atom 9.1223504399999999 3.3483034500000000 51.8317346700000030 N
  atom 1.5809172600000001 1.8176776600000000 51.7600815899999986 B
  atom 7.8838898400000001 1.1555849400000000 51.7159338199999965 N
  
  -----------------------------------------------------------------------
  Completed first pass over input file geometry.in .
  -----------------------------------------------------------------------
  

  Basic array size parameters:
  | Number of species                 :        2
  | Number of atoms                   :       36
  | Number of lattice vectors         :        3
  | Max. basis fn. angular momentum   :        2
  | Max. atomic/ionic basis occupied n:        2
  | Max. number of basis fn. types    :        2
  | Max. radial fns per species/type  :        3
  | Max. logarithmic grid size        :     1290
  | Max. radial integration grid size :       35
  | Max. angular integration grid size:      302
  | Max. angular grid division number :        8
  | Radial grid for Hartree potential :     1290
  | Number of spin channels           :        1

------------------------------------------------------------
          Reading file control.in.
------------------------------------------------------------
  XC: Using PBE gradient-corrected functionals.
  Scalar relativistic treatment of kinetic energy: on-site free-atom approximation to ZORA.
  Found k-point grid:         4         4         1
  Spin treatment: No spin polarisation.
  Charge =   0.000000E+00: Neutral system requested explicitly.
  Using dipole correction.
  Threshold value for wave function integration:  0.1000E-05
 
  Reading configuration options for species B                   .
  | Found nuclear charge :   5.0000
  | Found atomic mass :    10.8110000000000      amu
  | Found l_max for Hartree potential  :   4
  | Found cutoff potl. onset [A], width [A], scale factor :    3.50000    1.50000    1.00000
  | Threshold for basis-dependent cutoff potential is   0.100000E-03
  | Found data for basic radial integration grid :    32 points, outermost radius =    5.000 A
  | Found multiplier for basic radial grid :   1
  | Found angular grid specification: user-specified.
  | Specified grid contains     4 separate shells.
  | Check grid settings after all constraints further below.
  | Found free-atom valence shell :  2 s   2.000
  | Found free-atom valence shell :  2 p   1.000
  | No ionic wave fns used. Skipping ion_occ.
  | Found hydrogenic basis function :  2 p   1.400
  | Found hydrogenic basis function :  3 d   4.800
  | Found hydrogenic basis function :  2 s   4.000
 | Encountered keyword species, ending the description of species B                   .
  Species B                   : Missing cutoff potential type.
  Defaulting to exp(1/x)/(1-x)^2 type cutoff potential.
  Species B : No 'logarithmic' tag. Using default grid for free atom:
  | Default logarithmic grid data [bohr] : 0.1000E-03 0.1000E+03 0.1012E+01
  Species B : On-site basis accuracy parameter (for Gram-Schmidt orthonormalisation) not specified.
  Using default value basis_acc =  0.1000000E-03.
  Species B                   : Using default innermost maximum threshold i_radial=  2 for radial functions.
  Species B                   : Default cutoff onset for free atom density etc. : 0.35000000E+01 AA.
  Species B                   : Basic radial grid will be enhanced according to radial_multiplier =   1, to contain    32 grid points.
 
  Reading configuration options for species N                   .
  | Found nuclear charge :   7.0000
  | Found atomic mass :    14.0067000000000      amu
  | Found l_max for Hartree potential  :   4
  | Found cutoff potl. onset [A], width [A], scale factor :    3.50000    1.50000    1.00000
  | Threshold for basis-dependent cutoff potential is   0.100000E-03
  | Found data for basic radial integration grid :    35 points, outermost radius =    5.000 A
  | Found multiplier for basic radial grid :   1
  | Found angular grid specification: user-specified.
  | Specified grid contains     5 separate shells.
  | Check grid settings after all constraints further below.
  | Found free-atom valence shell :  2 s   2.000
  | Found free-atom valence shell :  2 p   3.000
  | No ionic wave fns used. Skipping ion_occ.
  | No ionic wave fns used. Skipping ion_occ.
  | Found hydrogenic basis function :  2 p   1.800
  | Found hydrogenic basis function :  3 d   6.800
  | Found hydrogenic basis function :  3 s   5.800
  Species N                   : Missing cutoff potential type.
  Defaulting to exp(1/x)/(1-x)^2 type cutoff potential.
  Species N : No 'logarithmic' tag. Using default grid for free atom:
  | Default logarithmic grid data [bohr] : 0.1000E-03 0.1000E+03 0.1012E+01
  Species N : On-site basis accuracy parameter (for Gram-Schmidt orthonormalisation) not specified.
  Using default value basis_acc =  0.1000000E-03.
  Species N                   : Using default innermost maximum threshold i_radial=  2 for radial functions.
  Species N                   : Default cutoff onset for free atom density etc. : 0.35000000E+01 AA.
  Species N                   : Basic radial grid will be enhanced according to radial_multiplier =   1, to contain    35 grid points.
 
  Finished reading input file 'control.in'.
 
------------------------------------------------------------


------------------------------------------------------------
          Reading geometry description geometry.in.
------------------------------------------------------------
  | The smallest distance between any two atoms is         1.37241578 AA.
  | The first atom of this pair is atom number                     28 .
  | The second atom of this pair is atom number                    33 .
  | Wigner-Seitz cell of the first atom image           0     0     0 .
  | (The Wigner-Seitz cell of the second atom is 0 0 0  by definition.)

  Symmetry information by spglib:
  | Precision set to  0.1E-04
  | Number of Operations  : 1
  | Space group           : 1
  | International         : P1
  | Schoenflies           : C1^1
  Input structure read successfully.
  The structure contains       36 atoms,  and a total of        216.000 electrons.

  Input geometry:
  | Unit cell:
  |        7.53728469        0.00000000        0.00000000
  |        3.76864235        6.52748002        0.00000000
  |        0.00000000        0.00000000      100.00000000
  | Atomic structure:
  |       Atom                x [A]            y [A]            z [A]
  |    1: Species B             0.37055791        0.24737048       48.29929967
  |    2: Species N             1.60957725        0.95472184       48.25811686
  |    3: Species B             1.61590573        2.40816354       48.20793318
  |    4: Species N             2.91196536        3.06988293       48.28785561
  |    5: Species B             2.89565870        4.56153020       48.24408823
  |    6: Species N             4.12934602        5.30390257       48.26383696
  |    7: Species B             2.88811046        0.19389855       48.24405063
  |    8: Species N             4.14309320        0.92329709       48.24998743
  |    9: Species B             4.21739793        2.37116328       48.19838141
  |   10: Species N             5.40710771        3.14168210       48.25511500
  |   11: Species B             5.38067434        4.63510605       48.20078356
  |   12: Species N             6.63266738        5.25040155       48.22679679
  |   13: Species B             5.40530815        0.26306317       48.18929275
  |   14: Species N             6.64743252        0.93847509       48.20150459
  |   15: Species B             6.73301680        2.41433136       48.21392934
  |   16: Species N             7.92662601        3.11551884       48.30357623
  |   17: Species B             7.95556339        4.65812042       48.22730280
  |   18: Species N             9.22535226        5.26158038       48.17881660
  |   19: Species B             9.08415449        6.17851887       51.77162195
  |   20: Species N             7.85037932        5.51468502       51.78729993
  |   21: Species B             7.88459492        4.06079832       51.81830237
  |   22: Species N             6.63707121        3.32471089       51.79041805
  |   23: Species B             6.52790484        1.78518980       51.77100089
  |   24: Species N             5.27823623        1.09084989       51.75456417
  |   25: Species B             6.57980804        6.18742814       51.77574804
  |   26: Species N             5.29958487        5.40550757       51.79386971
  |   27: Species B             5.23098866        4.00130920       51.72454265
  |   28: Species N             4.04910925        3.28143683       51.75994934
  |   29: Species B             4.07320565        1.81599161       51.69992696
  |   30: Species N             2.85978468        1.08950182       51.73210385
  |   31: Species B             4.07281827        6.15988654       51.73786867
  |   32: Species N            10.36895106        5.48875263       51.76279126
  |   33: Species B             2.84483030        3.93964246       51.76157446
  |   34: Species N             9.12235044        3.34830345       51.83173467
  |   35: Species B             1.58091726        1.81767766       51.76008159
  |   36: Species N             7.88388984        1.15558494       51.71593382

  Lattice parameters for 3D lattice (in Angstroms) :     7.537285    7.537285  100.000000
  Angle(s) between unit vectors (in degrees)       :    90.000000   90.000000   60.000000


  Quantities derived from the lattice vectors (in Angstrom^-1):
  | Reciprocal lattice vector 1:  0.833614 -0.481287  0.000000
  | Reciprocal lattice vector 2: -0.000000  0.962574  0.000000
  | Reciprocal lattice vector 3:  0.000000  0.000000  0.062832
  | Unit cell volume                               :   0.491995E+04  Angstrom^3

  Fractional coordinates:
                         L1                L2                L3
       atom_frac         0.03021493        0.03789678        0.48299300  B
       atom_frac         0.14041772        0.14626193        0.48258117  N
       atom_frac         0.02992482        0.36892699        0.48207933  B
       atom_frac         0.15119074        0.47030139        0.48287856  N
       atom_frac         0.03476823        0.69881948        0.48244088  B
       atom_frac         0.14158102        0.81254980        0.48263837  N
       atom_frac         0.36832403        0.02970496        0.48244051  B
       atom_frac         0.47895595        0.14144771        0.48249987  N
       atom_frac         0.37790879        0.36325860        0.48198381  B
       atom_frac         0.47673093        0.48130091        0.48255115  N
       atom_frac         0.35882877        0.71009119        0.48200784  B
       atom_frac         0.47780425        0.80435352        0.48226797  N
       atom_frac         0.69699219        0.04030088        0.48189293  B
       atom_frac         0.81005348        0.14377295        0.48201505  N
       atom_frac         0.70835880        0.36987189        0.48213929  B
       atom_frac         0.81300901        0.47729274        0.48303576  N
       atom_frac         0.69868614        0.71361696        0.48227303  B
       atom_frac         0.82092924        0.80606610        0.48178817  N
       atom_frac         0.73195921        0.94653968        0.51771622  B
       atom_frac         0.61911877        0.84484135        0.51787300  N
       atom_frac         0.73502490        0.62210812        0.51818302  B
       atom_frac         0.62589496        0.50934065        0.51790418  N
       atom_frac         0.72933759        0.27348836        0.51771001  B
       atom_frac         0.61672525        0.16711654        0.51754564  N
       atom_frac         0.39901567        0.94790457        0.51775748  B
       atom_frac         0.28905816        0.82811553        0.51793870  N
       atom_frac         0.38751776        0.61299448        0.51724543  B
       atom_frac         0.28585504        0.50271113        0.51759949  N
       atom_frac         0.40130399        0.27820715        0.51699927  B
       atom_frac         0.29596341        0.16691002        0.51732104  N
       atom_frac         0.06851355        0.94368524        0.51737869  B
       atom_frac         0.95525359        0.84086855        0.51762791  N
       atom_frac         0.07566076        0.60354723        0.51761574  B
       atom_frac         0.95381916        0.51295499        0.51831735  N
       atom_frac         0.07051353        0.27846545        0.51760082  B
       atom_frac         0.95746849        0.17703385        0.51715934  N

  Slab Identifier: This is Z-oriented slab and maximum thickness of the vacuum is: 96.347 Angstrom.
 
  Finished reading input file 'geometry.in'.
 

 
  Consistency checks for stacksize environment parameter are next.
 
  | Maximum stacksize for task 0: unlimited
  | Maximum stacksize for task 1: unlimited
  | Maximum stacksize for task 2: unlimited
  | Maximum stacksize for task 3: unlimited
  | Maximum stacksize for task 4: unlimited
  | Maximum stacksize for task 5: unlimited
  | Maximum stacksize for task 6: unlimited
  | Maximum stacksize for task 7: unlimited
  | Maximum stacksize for task 8: unlimited
  | Maximum stacksize for task 9: unlimited
  | Maximum stacksize for task 10: unlimited
  | Maximum stacksize for task 11: unlimited
  | Maximum stacksize for task 12: unlimited
  | Maximum stacksize for task 13: unlimited
  | Maximum stacksize for task 14: unlimited
  | Maximum stacksize for task 15: unlimited
  | Maximum stacksize for task 16: unlimited
  | Maximum stacksize for task 17: unlimited
  | Maximum stacksize for task 18: unlimited
  | Maximum stacksize for task 19: unlimited
  | Maximum stacksize for task 20: unlimited
  | Maximum stacksize for task 21: unlimited
  | Maximum stacksize for task 22: unlimited
  | Maximum stacksize for task 23: unlimited
  | Maximum stacksize for task 24: unlimited
  | Maximum stacksize for task 25: unlimited
  | Maximum stacksize for task 26: unlimited
  | Maximum stacksize for task 27: unlimited
  | Maximum stacksize for task 28: unlimited
  | Maximum stacksize for task 29: unlimited
  | Maximum stacksize for task 30: unlimited
  | Maximum stacksize for task 31: unlimited
  | Maximum stacksize for task 32: unlimited
  | Maximum stacksize for task 33: unlimited
  | Maximum stacksize for task 34: unlimited
  | Maximum stacksize for task 35: unlimited
  | Maximum stacksize for task 36: unlimited
  | Maximum stacksize for task 37: unlimited
  | Maximum stacksize for task 38: unlimited
  | Maximum stacksize for task 39: unlimited
  | Maximum stacksize for task 40: unlimited
  | Maximum stacksize for task 41: unlimited
  | Maximum stacksize for task 42: unlimited
  | Maximum stacksize for task 43: unlimited
  | Maximum stacksize for task 44: unlimited
  | Maximum stacksize for task 45: unlimited
  | Maximum stacksize for task 46: unlimited
  | Maximum stacksize for task 47: unlimited
  | Maximum stacksize for task 48: unlimited
  | Maximum stacksize for task 49: unlimited
  | Maximum stacksize for task 50: unlimited
  | Maximum stacksize for task 51: unlimited
  | Maximum stacksize for task 52: unlimited
  | Maximum stacksize for task 53: unlimited
  | Maximum stacksize for task 54: unlimited
  | Maximum stacksize for task 55: unlimited
  | Maximum stacksize for task 56: unlimited
  | Maximum stacksize for task 57: unlimited
  | Maximum stacksize for task 58: unlimited
  | Maximum stacksize for task 59: unlimited
  | Maximum stacksize for task 60: unlimited
  | Maximum stacksize for task 61: unlimited
  | Maximum stacksize for task 62: unlimited
  | Maximum stacksize for task 63: unlimited
  | Maximum stacksize for task 64: unlimited
  | Maximum stacksize for task 65: unlimited
  | Maximum stacksize for task 66: unlimited
  | Maximum stacksize for task 67: unlimited
  | Maximum stacksize for task 68: unlimited
  | Maximum stacksize for task 69: unlimited
  | Maximum stacksize for task 70: unlimited
  | Maximum stacksize for task 71: unlimited
  | Maximum stacksize for task 72: unlimited
  | Maximum stacksize for task 73: unlimited
  | Maximum stacksize for task 74: unlimited
  | Maximum stacksize for task 75: unlimited
  | Maximum stacksize for task 76: unlimited
  | Maximum stacksize for task 77: unlimited
  | Maximum stacksize for task 78: unlimited
  | Maximum stacksize for task 79: unlimited
  | Current stacksize for task 0: unlimited
  | Current stacksize for task 1: unlimited
  | Current stacksize for task 2: unlimited
  | Current stacksize for task 3: unlimited
  | Current stacksize for task 4: unlimited
  | Current stacksize for task 5: unlimited
  | Current stacksize for task 6: unlimited
  | Current stacksize for task 7: unlimited
  | Current stacksize for task 8: unlimited
  | Current stacksize for task 9: unlimited
  | Current stacksize for task 10: unlimited
  | Current stacksize for task 11: unlimited
  | Current stacksize for task 12: unlimited
  | Current stacksize for task 13: unlimited
  | Current stacksize for task 14: unlimited
  | Current stacksize for task 15: unlimited
  | Current stacksize for task 16: unlimited
  | Current stacksize for task 17: unlimited
  | Current stacksize for task 18: unlimited
  | Current stacksize for task 19: unlimited
  | Current stacksize for task 20: unlimited
  | Current stacksize for task 21: unlimited
  | Current stacksize for task 22: unlimited
  | Current stacksize for task 23: unlimited
  | Current stacksize for task 24: unlimited
  | Current stacksize for task 25: unlimited
  | Current stacksize for task 26: unlimited
  | Current stacksize for task 27: unlimited
  | Current stacksize for task 28: unlimited
  | Current stacksize for task 29: unlimited
  | Current stacksize for task 30: unlimited
  | Current stacksize for task 31: unlimited
  | Current stacksize for task 32: unlimited
  | Current stacksize for task 33: unlimited
  | Current stacksize for task 34: unlimited
  | Current stacksize for task 35: unlimited
  | Current stacksize for task 36: unlimited
  | Current stacksize for task 37: unlimited
  | Current stacksize for task 38: unlimited
  | Current stacksize for task 39: unlimited
  | Current stacksize for task 40: unlimited
  | Current stacksize for task 41: unlimited
  | Current stacksize for task 42: unlimited
  | Current stacksize for task 43: unlimited
  | Current stacksize for task 44: unlimited
  | Current stacksize for task 45: unlimited
  | Current stacksize for task 46: unlimited
  | Current stacksize for task 47: unlimited
  | Current stacksize for task 48: unlimited
  | Current stacksize for task 49: unlimited
  | Current stacksize for task 50: unlimited
  | Current stacksize for task 51: unlimited
  | Current stacksize for task 52: unlimited
  | Current stacksize for task 53: unlimited
  | Current stacksize for task 54: unlimited
  | Current stacksize for task 55: unlimited
  | Current stacksize for task 56: unlimited
  | Current stacksize for task 57: unlimited
  | Current stacksize for task 58: unlimited
  | Current stacksize for task 59: unlimited
  | Current stacksize for task 60: unlimited
  | Current stacksize for task 61: unlimited
  | Current stacksize for task 62: unlimited
  | Current stacksize for task 63: unlimited
  | Current stacksize for task 64: unlimited
  | Current stacksize for task 65: unlimited
  | Current stacksize for task 66: unlimited
  | Current stacksize for task 67: unlimited
  | Current stacksize for task 68: unlimited
  | Current stacksize for task 69: unlimited
  | Current stacksize for task 70: unlimited
  | Current stacksize for task 71: unlimited
  | Current stacksize for task 72: unlimited
  | Current stacksize for task 73: unlimited
  | Current stacksize for task 74: unlimited
  | Current stacksize for task 75: unlimited
  | Current stacksize for task 76: unlimited
  | Current stacksize for task 77: unlimited
  | Current stacksize for task 78: unlimited
  | Current stacksize for task 79: unlimited
 
  Consistency checks for the contents of control.in are next.
 
  MPI_IN_PLACE appears to work with this MPI implementation.
  | Keeping use_mpi_in_place .true. (see manual).
  Explicit treatment of the Coulomb operator is needed, but the RI method is not specified.
  Coulomb operator: Defaulting to 'LVL fast' resolution of identity - RI_type = LVL_fast
  Species B: Using default value for prodbas_acc =   1.000000E-04.
  Species B: Using default value max_l_prodbas =     6.
  Species N: Using default value for prodbas_acc =   1.000000E-04.
  Species N: Using default value max_l_prodbas =     6.
  Target number of points in a grid batch is not set. Defaulting to  100
  Method for grid partitioning is not set. Defaulting to parallel hash+maxmin partitioning.
  Batch size limit is not set. Defaulting to    200
  By default, will store active basis functions for each batch.
  If in need of memory, prune_basis_once .false. can be used to disable this option.
  communication_type for Hartree potential was not specified.
  Defaulting to calc_hartree .
  Defaulting to Pulay charge density mixer.
  Pulay mixer: Number of relevant iterations not set.
  Defaulting to    8 iterations.
  Pulay mixer: Number of initial linear mixing iterations not set.
  Defaulting to    0 iterations.
  Work space size for distributed Hartree potential not set.
  Defaulting to   0.200000E+03 MB.
  Mixing parameter for charge density mixing has not been set.
  Using default: charge_mix_param =     0.0500.
  The mixing parameter will be adjusted in iteration number     2 of the first full s.c.f. cycle only.
  Algorithm-dependent basis array size parameters:
  | n_max_pulay                         :        8
  Maximum number of self-consistency iterations not provided.
  Presetting  1000 iterations.
  Presetting      1001 iterations before the initial mixing cycle
  is restarted anyway using the sc_init_iter criterion / keyword.
  Presetting a factor      1.000 between actual scf density residual
  and density convergence criterion sc_accuracy_rho below which sc_init_iter
  takes no effect.
 * No s.c.f. convergence criteria (sc_accuracy_*) were provided in control.in.
 * The run will proceed with a reasonable default guess, but please check whether.
 * the s.c.f. cycles seem to take too much or too little time.
  Calculation of forces was not defined in control.in. No forces will be calculated.
  Geometry relaxation not requested: no relaxation will be performed.
 * Notice: The s.c.f. convergence criterion sc_accuracy_rho was not provided.
 * We used to stop in this case, and ask the user to provide reasonable
 * scf convergence criteria. However, this led some users to employ criteria
 * that led to extremely long run times, e.g., for simple relaxation.
 * We now preset a default value for sc_accuracy_rho if it is not set.
 * You may still wish to check if this setting is too tight or too loose for your needs.
 * Based on n_atoms and forces and force-correction status, FHI-aims chose sc_accuracy_rho =  0.195959E-04 .
  No accuracy limit for integral partition fn. given. Defaulting to  0.1000E-14.
  No occupation type (smearing scheme) given. Defaulting to Gaussian broadening, width =  0.1000E-01 eV.
  The width will be adjusted in iteration number     2 of the first full s.c.f. cycle only.
  S.C.F. convergence parameters will be adjusted in iteration number     2 of the first full s.c.f. cycle only.
  No accuracy for occupation numbers given. Defaulting to  0.1000E-12.
  No threshold value for occupation numbers given. Defaulting to  0.0000E+00.
  No accuracy for fermi level given. Defaulting to  0.1000E-19.
  Maximum # of iterations to find E_F not set. Defaulting to  200.
  Preferred method for the eigenvalue solver ('KS_method') not specified in 'control.in'.
  Calling BLACS routine to test compilation state
  Since ScaLAPACK support is enabled, defaulting to ELPA (via ELSI).
  Will not use alltoall communication since running on < 1024 CPUs.
  Threshold for basis singularities not set.
  Default threshold for basis singularities:  0.1000E-04
  partition_type (choice of integration weights) for integrals was not specified.
  | Using a version of the partition function of Stratmann and coworkers ('stratmann_sparse').
  | At each grid point, the set of atoms used to build the partition table is smoothly restricted to
  | only those atoms whose free-atom density would be non-zero at that grid point.
  Partitioning for Hartree potential was not defined. Using partition_type for integrals.
  | Adjusted default value of keyword multip_moments_threshold to:       0.10000000E-11
  | This value may affect high angular momentum components of the Hartree potential in periodic systems.
  Angular momentum expansion for Kerker preconditioner not set explicitly.
  | Using default value of   0
  No explicit requirement for turning off preconditioner.
  | By default, it will be turned off when the charge convergence reaches
  | sc_accuracy_rho  =   0.195959E-04
  No special mixing parameter while Kerker preconditioner is on.
  Using default: charge_mix_param =     0.0500.
  Threshold for auxiliary basis singularities not set.
  Default threshold for auxiliary basis singularities:  0.1000E-04
  No q(lm)/r^(l+1) cutoff set for long-range Hartree potential.
  | Using default value of  0.100000E-09 .
  | Verify using the multipole_threshold keyword.
  Defaulting to new monopole extrapolation.
  Density update method: automatic selection selected.
  Using density matrix based charge density update.
  Using density matrix based charge density update.
  Using packed matrix style: index .
  Defaulting to use time-reversal symmetry for k-point grid.
  Charge integration errors on the 3D integration grid will be compensated
  by explicit normalization and distribution of residual charges.
  Use the "compensate_multipole_errors" flag to change this behaviour.
  Default to 1D ("use_logsbt") integrations for auxiliary 2-center integrals.
  Default onset of logarithmic r-grid for SBT is -38.000000000000
  Default onset of logarithmic k-grid for SBT is -25.000000000000
  Default range of logarithmic r- and k-grid for SBT is  45.000000000000
  Default number of logarithmic r- and k-grid for SBT is   4096
  Default of use_2d_corr is to use the efficient 2D distribution where possible
  Found no potential conflicts with setting 'use_local_index' for this calculation.
  Flag 'use_local_index' has not been set.
  Testing whether we classify this calculation as large-scale ...
  The calculation contains less than 100 atoms. This is most likely not a large-scale calculation.
  Not setting 'use_local_index'.
 
  Consistency checks for the contents of geometry.in are next.
 

  Range separation radius for Ewald summation (hartree_convergence_parameter):      5.00000000 bohr.
  Number of empty states per atom not set in control.in - providing a guess from actual geometry.
  | Total number of empty states used during s.c.f. cycle:      108
  If you use a very high smearing, use empty_states (per atom!) in control.in to increase this value.

  Structure-dependent array size parameters: 
  | Maximum number of distinct radial functions  :       12
  | Maximum number of basis functions            :      504
  | Number of Kohn-Sham states (occupied + empty):      216
------------------------------------------------------------
 Error: The dipole correction needs vacuum z-level to be defined
 Vacuum level will be determined automatically.
 Determine position of vacuum level automatically
 **WARNING** : This feature is experimental and still requires some testing
 **PLEASE ** : If you see it fail, please report.
 Vacuum level determined:
 set_vacuum_level    0.00528 Bohr
  After read_input_data [GB]:     83.53

  Performing system and environment tests:
  | Environment variable OMP_NUM_THREADS correctly set to 1.
  | Checking for ScaLAPACK...
  | Testing pdtran()...
  | All pdtran() tests passed.
  After prepare_system [GB]:     83.40

------------------------------------------------------------
          Preparing all fixed parts of the calculation.
------------------------------------------------------------
  Determining machine precision:
    2.225073858507201E-308
  Setting up grids for atomic and cluster calculations.

  Creating wave function, potential, and density for free atoms.
  Runtime choices for atomic solver:
  | atomic solver xc        : PBE
  | compute density gradient: 1
  | compute kinetic density : F

  Species: B

  List of occupied orbitals and eigenvalues:
    n    l              occ      energy [Ha]    energy [eV]
    1    0           2.0000        -6.631096      -180.4413
    2    0           2.0000        -0.342554        -9.3214
    2    1           1.0000        -0.127121        -3.4592


  Species: N

  List of occupied orbitals and eigenvalues:
    n    l              occ      energy [Ha]    energy [eV]
    1    0           2.0000       -14.143973      -384.8771
    2    0           2.0000        -0.682008       -18.5584
    2    1           3.0000        -0.259605        -7.0642


  Adding cutoff potential to free-atom effective potential.
  Creating fixed part of basis set: Ionic, confined, hydrogenic.
 
  B                    hydrogenic:
 
  List of hydrogenic basis orbitals: 
    n    l      effective z      eigenvalue [eV]  inner max. [A]     outer max. [A]     outer radius [A]   
    2    1         1.400000        -6.4613           1.476684           1.476684           4.603067
    3    2         4.800000       -34.8298           0.986467           0.986467           4.491886
    2    0         4.000000       -54.4224           0.101523           0.692014           3.560846
 
 
  N                    hydrogenic:
 
  List of hydrogenic basis orbitals: 
    n    l      effective z      eigenvalue [eV]  inner max. [A]     outer max. [A]     outer radius [A]   
    2    1         1.800000       -10.9749           1.177451           1.177451           4.573712
    3    2         6.800000       -69.9026           0.704619           0.704619           3.538137
    3    0         5.800000       -50.8545           0.067388           1.191934           4.250239
 
  Creating atomic-like basis functions for current effective potential.

  Species B                   :

  List of atomic basis orbitals and eigenvalues:
    n    l      energy [Ha]    energy [eV]    outer radius [A]
    1    0        -6.631096      -180.4413       2.349843
    2    0        -0.342554        -9.3214       4.547137
    2    1        -0.127121        -3.4592       4.603067


  Species N                   :

  List of atomic basis orbitals and eigenvalues:
    n    l      energy [Ha]    energy [eV]    outer radius [A]
    1    0       -14.143973      -384.8771       1.637919
    2    0        -0.682008       -18.5584       4.463241
    2    1        -0.259605        -7.0642       4.518138

  Assembling full basis from fixed parts.
  | Species B :   atomic orbital   1 s accepted.
  | Species B :    hydro orbital   2 s accepted.
  | Species B :   atomic orbital   2 s accepted.
  | Species B :   atomic orbital   2 p accepted.
  | Species B :    hydro orbital   2 p accepted.
  | Species B :    hydro orbital   3 d accepted.
  | Species N :   atomic orbital   1 s accepted.
  | Species N :    hydro orbital   3 s accepted.
  | Species N :   atomic orbital   2 s accepted.
  | Species N :   atomic orbital   2 p accepted.
  | Species N :    hydro orbital   2 p accepted.
  | Species N :    hydro orbital   3 d accepted.
 
  Basis size parameters after reduction:
  | Total number of radial functions:       12
  | Total number of basis functions :      504
 
  Per-task memory consumption for arrays in subroutine allocate_ext:
  |           3.975688MB.
  Testing on-site integration grid accuracy.
  |  Species  Function  <phi|h_atom|phi> (log., in eV)  <phi|h_atom|phi> (rad., in eV)
           1        1               -180.4412899743               -180.4412668821
           1        2                 -7.0508962665                 -7.0531484353
           1        3                 12.1631637762                 12.1695200736
           1        4                 -3.4652986835                 -3.4686150231
           1        5                  7.2109830278                  7.1772455316 ***
           1        6                 17.2152472085                 17.2144468921
           2        7               -384.8770852097               -384.8770238657
           2        8                 12.5754985572                 12.5755902269
           2        9                -15.7673946340                -15.7673131149
           2       10                 -7.0647024644                 -7.0651952861
           2       11                  8.8117910312                  8.7928686445
           2       12                 35.9641313274                 35.9643080893
 * Note: Onsite integrals marked "***" above are less accurate than
 * onsite_accuracy_threshold =    0.03000 eV. Usually, this is harmless.
 * When in doubt, tighten the "radial" and/or "radial_multiplier" flags to check.

  Preparing densities etc. for the partition functions (integrals / Hartree potential).

  Preparations completed.
  max(cpu_time)          :      0.160 s.
  Wall clock time (cpu1) :      0.361 s.
------------------------------------------------------------
  After prepare_scf [GB]:     82.90

  Initializing index lists of integration centers etc. from given atomic structure:
  Mapping all atomic coordinates to central unit cell.

  Initializing the k-points
  Using symmetry for reducing the k-points
  | k-points reduced from:       16 to       10
  | Number of k-points                             :        10
  The eigenvectors in the calculations are COMPLEX.
  | Number of basis functions in the Hamiltonian integrals :      4770
  | Number of basis functions in a single unit cell        :       504
  | Number of centers in hartree potential         :      1912
  | Number of centers in hartree multipole         :       898
  | Number of centers in electron density summation:       734
  | Number of centers in basis integrals           :       754
  | Number of centers in integrals                 :       407
  | Number of centers in hamiltonian               :       734
  | Consuming          8 KiB for k_phase.
  | Number of super-cells (origin) [n_cells]                     :         243
  | Number of super-cells (after PM_index) [n_cells]             :          52
  | Number of super-cells in hamiltonian [n_cells_in_hamiltonian]:          52
  | Size of matrix packed + index [n_hamiltonian_matrix_size] :      563227
  After initialize_bc_dependent_lists [GB]:     82.69

------------------------------------------------------------
          Begin self-consistency loop: Initialization.

          Date     :  20240624, Time     :  151411.177
------------------------------------------------------------
  Available memory per node after initialize_hartree_non_periodic_ewald [GB]:     82.69
  | Estimated reciprocal-space cutoff momentum G_max:         1.84432723 bohr^-1 .
  | Reciprocal lattice points for long-range Hartree potential:    3500
  Available memory per node after initialize_recip_hartree_potential [GB]:     82.69
  Using simple linear distribution as default method for k-point parallelism.
  * Using 80 tasks for Scalapack Eigenvalue solver.
  Detailed listing of tasks and assigned k-points:
   Task     0 k-point     1 on co1488
   Task     1 k-point     1 on co1488
   Task     2 k-point     1 on co1488
   Task     3 k-point     1 on co1488
   Task     4 k-point     1 on co1488
   Task     5 k-point     1 on co1488
   Task     6 k-point     1 on co1488
   Task     7 k-point     1 on co1488
   Task     8 k-point     2 on co1488
   Task     9 k-point     2 on co1488
   Task    10 k-point     2 on co1488
   Task    11 k-point     2 on co1488
   Task    12 k-point     2 on co1488
   Task    13 k-point     2 on co1488
   Task    14 k-point     2 on co1488
   Task    15 k-point     2 on co1488
   Task    16 k-point     3 on co1488
   Task    17 k-point     3 on co1488
   Task    18 k-point     3 on co1488
   Task    19 k-point     3 on co1488
   Task    20 k-point     3 on co1488
   Task    21 k-point     3 on co1488
   Task    22 k-point     3 on co1488
   Task    23 k-point     3 on co1488
   Task    24 k-point     4 on co1488
   Task    25 k-point     4 on co1488
   Task    26 k-point     4 on co1488
   Task    27 k-point     4 on co1488
   Task    28 k-point     4 on co1488
   Task    29 k-point     4 on co1488
   Task    30 k-point     4 on co1488
   Task    31 k-point     4 on co1488
   Task    32 k-point     5 on co1488
   Task    33 k-point     5 on co1488
   Task    34 k-point     5 on co1488
   Task    35 k-point     5 on co1488
   Task    36 k-point     5 on co1488
   Task    37 k-point     5 on co1488
   Task    38 k-point     5 on co1488
   Task    39 k-point     5 on co1488
   Task    40 k-point     6 on co1489
   Task    41 k-point     6 on co1489
   Task    42 k-point     6 on co1489
   Task    43 k-point     6 on co1489
   Task    44 k-point     6 on co1489
   Task    45 k-point     6 on co1489
   Task    46 k-point     6 on co1489
   Task    47 k-point     6 on co1489
   Task    48 k-point     7 on co1489
   Task    49 k-point     7 on co1489
   Task    50 k-point     7 on co1489
   Task    51 k-point     7 on co1489
   Task    52 k-point     7 on co1489
   Task    53 k-point     7 on co1489
   Task    54 k-point     7 on co1489
   Task    55 k-point     7 on co1489
   Task    56 k-point     8 on co1489
   Task    57 k-point     8 on co1489
   Task    58 k-point     8 on co1489
   Task    59 k-point     8 on co1489
   Task    60 k-point     8 on co1489
   Task    61 k-point     8 on co1489
   Task    62 k-point     8 on co1489
   Task    63 k-point     8 on co1489
   Task    64 k-point     9 on co1489
   Task    65 k-point     9 on co1489
   Task    66 k-point     9 on co1489
   Task    67 k-point     9 on co1489
   Task    68 k-point     9 on co1489
   Task    69 k-point     9 on co1489
   Task    70 k-point     9 on co1489
   Task    71 k-point     9 on co1489
   Task    72 k-point    10 on co1489
   Task    73 k-point    10 on co1489
   Task    74 k-point    10 on co1489
   Task    75 k-point    10 on co1489
   Task    76 k-point    10 on co1489
   Task    77 k-point    10 on co1489
   Task    78 k-point    10 on co1489
   Task    79 k-point    10 on co1489
  K-point:     1 Tasks:     8 split into      4 X      2 BLACS grid
  Calculating block size based on n_basis =          504  max_nprow =            4  max_npcol =            2
  ScaLAPACK block size set to:           16
  Allocating        0.500 MB for ovlp_complex
  Allocating        0.500 MB for ham_complex
  Allocating        0.500 MB for eigenvec_complex
  Required Scalapack workspace - INTEGER:            1  REAL:             1  COMPLEX:            1
  Available memory per node after initialize_scalapack [GB]:     82.69
  Available memory per node after aims_elsi_init_scf [GB]:     82.69
  Available memory per node after initialize_fixed_grids [GB]:     82.69
  Partitioning the integration grid into batches with parallel hashing+maxmin method.
  | Number of batches:     2816
  | Maximal batch size:     194
  | Minimal batch size:      60
  | Average batch size:      83.544
  | Standard deviation of batch sizes:      21.180

  Integration load balanced across    80 MPI tasks.
  Work distribution over tasks is as follows:
  Task     0 has       2964 integration points.
  Task     1 has       2951 integration points.
  Task     2 has       2964 integration points.
  Task     3 has       2943 integration points.
  Task     4 has       2926 integration points.
  Task     5 has       2949 integration points.
  Task     6 has       2948 integration points.
  Task     7 has       2950 integration points.
  Task     8 has       2897 integration points.
  Task     9 has       2936 integration points.
  Task    10 has       2921 integration points.
  Task    11 has       2918 integration points.
  Task    12 has       2952 integration points.
  Task    13 has       2954 integration points.
  Task    14 has       2939 integration points.
  Task    15 has       2952 integration points.
  Task    16 has       2935 integration points.
  Task    17 has       2924 integration points.
  Task    18 has       2922 integration points.
  Task    19 has       2959 integration points.
  Task    20 has       2956 integration points.
  Task    21 has       2932 integration points.
  Task    22 has       2932 integration points.
  Task    23 has       2934 integration points.
  Task    24 has       2948 integration points.
  Task    25 has       2951 integration points.
  Task    26 has       2939 integration points.
  Task    27 has       2942 integration points.
  Task    28 has       2945 integration points.
  Task    29 has       2943 integration points.
  Task    30 has       2956 integration points.
  Task    31 has       2924 integration points.
  Task    32 has       2944 integration points.
  Task    33 has       2946 integration points.
  Task    34 has       2949 integration points.
  Task    35 has       2967 integration points.
  Task    36 has       2962 integration points.
  Task    37 has       2927 integration points.
  Task    38 has       2902 integration points.
  Task    39 has       2904 integration points.
  Task    40 has       2945 integration points.
  Task    41 has       2954 integration points.
  Task    42 has       2939 integration points.
  Task    43 has       2952 integration points.
  Task    44 has       2956 integration points.
  Task    45 has       2930 integration points.
  Task    46 has       2887 integration points.
  Task    47 has       2924 integration points.
  Task    48 has       2927 integration points.
  Task    49 has       2960 integration points.
  Task    50 has       2951 integration points.
  Task    51 has       2959 integration points.
  Task    52 has       2940 integration points.
  Task    53 has       2951 integration points.
  Task    54 has       2921 integration points.
  Task    55 has       2943 integration points.
  Task    56 has       2956 integration points.
  Task    57 has       2945 integration points.
  Task    58 has       2954 integration points.
  Task    59 has       2946 integration points.
  Task    60 has       2935 integration points.
  Task    61 has       2942 integration points.
  Task    62 has       2946 integration points.
  Task    63 has       2947 integration points.
  Task    64 has       2926 integration points.
  Task    65 has       2945 integration points.
  Task    66 has       2955 integration points.
  Task    67 has       2927 integration points.
  Task    68 has       2949 integration points.
  Task    69 has       2952 integration points.
  Task    70 has       2920 integration points.
  Task    71 has       2947 integration points.
  Task    72 has       2950 integration points.
  Task    73 has       2959 integration points.
  Task    74 has       2940 integration points.
  Task    75 has       2947 integration points.
  Task    76 has       2930 integration points.
  Task    77 has       2950 integration points.
  Task    78 has       2953 integration points.
  Task    79 has       2893 integration points.
  Available memory per node after partition_grid [GB]:     82.67
  Initializing partition tables, free-atom densities, potentials, etc. across the integration grid (initialize_grid_storage).
  | initialize_grid_storage: Actual outermost partition radius vs. multipole_radius_free
  | (-- VB: in principle, multipole_radius_free should be larger, hence this output)
  | Species        1: Confinement radius =              4.999999999999999 AA, multipole_radius_free =              5.014318961829659 AA.
  | Species        1: outer_partition_radius set to              5.014318961829659 AA .
  | Species        2: Confinement radius =              4.999999999999999 AA, multipole_radius_free =              5.043624274424571 AA.
  | Species        2: outer_partition_radius set to              5.043624274424571 AA .
  | The sparse table of interatomic distances needs       1327.80 kbyte instead of      4548.13 kbyte of memory.
  | Net number of integration points:   235260
  | of which are non-zero points    :   197536
  | Numerical average free-atom electrostatic potential    :     -0.88874146 eV
  Available memory per node after initialize_grid_storage_p1 [GB]:     82.57
  Renormalizing the initial density to the exact electron count on the 3D integration grid.
  | Initial density: Formal number of electrons (from input files) :     216.0000000000
  | Integrated number of electrons on 3D grid     :     215.9990856998
  | Charge integration error                      :      -0.0009143002
  | Normalization factor for density and gradient :       1.0000042329
  Renormalizing the free-atom superposition density to the exact electron count on the 3D integration grid.
  | Formal number of electrons (from input files) :     216.0000000000
  | Integrated number of electrons on 3D grid     :     215.9990856998
  | Charge integration error                      :      -0.0009143002
  | Normalization factor for density and gradient :       1.0000042329
  Obtaining max. number of non-zero basis functions in each batch (get_n_compute_maxes).
  | Maximal number of non-zero basis functions:      649 in task     0
  | Maximal number of non-zero basis functions:      629 in task     1
  | Maximal number of non-zero basis functions:      623 in task     2
  | Maximal number of non-zero basis functions:      638 in task     3
  | Maximal number of non-zero basis functions:      660 in task     4
  | Maximal number of non-zero basis functions:      651 in task     5
  | Maximal number of non-zero basis functions:      609 in task     6
  | Maximal number of non-zero basis functions:      603 in task     7
  | Maximal number of non-zero basis functions:      619 in task     8
  | Maximal number of non-zero basis functions:      634 in task     9
  | Maximal number of non-zero basis functions:      651 in task    10
  | Maximal number of non-zero basis functions:      673 in task    11
  | Maximal number of non-zero basis functions:      646 in task    12
  | Maximal number of non-zero basis functions:      615 in task    13
  | Maximal number of non-zero basis functions:      646 in task    14
  | Maximal number of non-zero basis functions:      650 in task    15
  | Maximal number of non-zero basis functions:      638 in task    16
  | Maximal number of non-zero basis functions:      631 in task    17
  | Maximal number of non-zero basis functions:      660 in task    18
  | Maximal number of non-zero basis functions:      637 in task    19
  | Maximal number of non-zero basis functions:      647 in task    20
  | Maximal number of non-zero basis functions:      634 in task    21
  | Maximal number of non-zero basis functions:      639 in task    22
  | Maximal number of non-zero basis functions:      656 in task    23
  | Maximal number of non-zero basis functions:      624 in task    24
  | Maximal number of non-zero basis functions:      614 in task    25
  | Maximal number of non-zero basis functions:      652 in task    26
  | Maximal number of non-zero basis functions:      642 in task    27
  | Maximal number of non-zero basis functions:      614 in task    28
  | Maximal number of non-zero basis functions:      643 in task    29
  | Maximal number of non-zero basis functions:      638 in task    30
  | Maximal number of non-zero basis functions:      672 in task    31
  | Maximal number of non-zero basis functions:      632 in task    32
  | Maximal number of non-zero basis functions:      629 in task    33
  | Maximal number of non-zero basis functions:      638 in task    34
  | Maximal number of non-zero basis functions:      644 in task    35
  | Maximal number of non-zero basis functions:      643 in task    36
  | Maximal number of non-zero basis functions:      635 in task    37
  | Maximal number of non-zero basis functions:      657 in task    38
  | Maximal number of non-zero basis functions:      626 in task    39
  | Maximal number of non-zero basis functions:      647 in task    40
  | Maximal number of non-zero basis functions:      628 in task    41
  | Maximal number of non-zero basis functions:      632 in task    42
  | Maximal number of non-zero basis functions:      622 in task    43
  | Maximal number of non-zero basis functions:      663 in task    44
  | Maximal number of non-zero basis functions:      631 in task    45
  | Maximal number of non-zero basis functions:      639 in task    46
  | Maximal number of non-zero basis functions:      653 in task    47
  | Maximal number of non-zero basis functions:      628 in task    48
  | Maximal number of non-zero basis functions:      629 in task    49
  | Maximal number of non-zero basis functions:      687 in task    50
  | Maximal number of non-zero basis functions:      645 in task    51
  | Maximal number of non-zero basis functions:      617 in task    52
  | Maximal number of non-zero basis functions:      640 in task    53
  | Maximal number of non-zero basis functions:      626 in task    54
  | Maximal number of non-zero basis functions:      637 in task    55
  | Maximal number of non-zero basis functions:      631 in task    56
  | Maximal number of non-zero basis functions:      617 in task    57
  | Maximal number of non-zero basis functions:      639 in task    58
  | Maximal number of non-zero basis functions:      636 in task    59
  | Maximal number of non-zero basis functions:      613 in task    60
  | Maximal number of non-zero basis functions:      611 in task    61
  | Maximal number of non-zero basis functions:      615 in task    62
  | Maximal number of non-zero basis functions:      667 in task    63
  | Maximal number of non-zero basis functions:      621 in task    64
  | Maximal number of non-zero basis functions:      690 in task    65
  | Maximal number of non-zero basis functions:      620 in task    66
  | Maximal number of non-zero basis functions:      665 in task    67
  | Maximal number of non-zero basis functions:      661 in task    68
  | Maximal number of non-zero basis functions:      622 in task    69
  | Maximal number of non-zero basis functions:      629 in task    70
  | Maximal number of non-zero basis functions:      640 in task    71
  | Maximal number of non-zero basis functions:      638 in task    72
  | Maximal number of non-zero basis functions:      639 in task    73
  | Maximal number of non-zero basis functions:      622 in task    74
  | Maximal number of non-zero basis functions:      641 in task    75
  | Maximal number of non-zero basis functions:      643 in task    76
  | Maximal number of non-zero basis functions:      644 in task    77
  | Maximal number of non-zero basis functions:      649 in task    78
  | Maximal number of non-zero basis functions:      649 in task    79
  Available memory per node after get_n_compute_maxes_p1 [GB]:     82.48
  Available memory per node after allocate_matrices [GB]:     82.47
  Available memory per node after init_comm_sparse_local_matrix_scalapack [GB]:     82.47
  Integrating Hamiltonian matrix: batch-based integration.
  Time summed over all CPUs for integration: real work       17.475 s, elapsed       20.642 s
  Available memory per node after integrate hamiltonian matrix [GB]:     81.64
  Integrating overlap matrix.
  Time summed over all CPUs for integration: real work       10.308 s, elapsed       11.616 s
  Available memory per node after integrate ovlp matrix [GB]:     81.36
  Available memory per node after ASI_callbacks invoke [GB]:     81.36
  Deallocating overlap matrix.
  Available memory per node after save_overlap_scalapack [GB]:     81.36

  Updating Kohn-Sham eigenvalues and eigenvectors using ELSI and the ELPA eigensolver.
  Singularity check in k-point 1 (analysis for other k-points may follow below):
  Overlap matrix is not singular
  | Lowest and highest eigenvalues :  0.5702E-03,  0.1030E+02
  Finished singularity check of overlap matrix
  | Time :     0.151 s
  Starting ELPA eigensolver
  Finished Cholesky decomposition
  | Time :     0.036 s
  Finished transformation to standard eigenproblem
  | Time :     0.015 s
  Finished solving standard eigenproblem
  | Time :     0.045 s
  Finished back-transformation of eigenvectors
  | Time :     0.004 s

  Obtaining occupation numbers and electronic chemical potential using ELSI.
  | Note that, for insulating systems, the printed 'chemical potential' value is not uniquely defined.
  | It can be anywhere in the energy gap, as long as it correctly separates occupied and unoccupied states.
  | In systems with a gap, the physically relevant chemical potential is the VBM or HOMO.

  | Chemical potential (Fermi level):    -9.38959698 eV
  Available memory per node after advance_KS_solution [GB]:     81.16
  Writing Kohn-Sham eigenvalues.
  K-point:       1 at    0.000000    0.000000    0.000000 (in units of recip. lattice)

  State    Occupation    Eigenvalue [Ha]    Eigenvalue [eV]
      1       2.00000         -14.310329         -389.40387
      2       2.00000         -14.299144         -389.09951
      3       2.00000         -14.296718         -389.03350
      4       2.00000         -14.293218         -388.93825
      5       2.00000         -14.292809         -388.92713
      6       2.00000         -14.292377         -388.91537
      7       2.00000         -14.290453         -388.86300
      8       2.00000         -14.290355         -388.86034
      9       2.00000         -14.290266         -388.85791
     10       2.00000         -14.290243         -388.85729
     11       2.00000         -14.289001         -388.82349
     12       2.00000         -14.288186         -388.80133
     13       2.00000         -14.284393         -388.69811
     14       2.00000         -14.279097         -388.55399
     15       2.00000         -14.277866         -388.52049
     16       2.00000         -14.276583         -388.48558
     17       2.00000         -14.274389         -388.42589
     18       2.00000         -14.259441         -388.01913
     19       2.00000          -6.711150         -182.61968
     20       2.00000          -6.710730         -182.60826
     21       2.00000          -6.709087         -182.56356
     22       2.00000          -6.708205         -182.53953
     23       2.00000          -6.706847         -182.50258
     24       2.00000          -6.706177         -182.48437
     25       2.00000          -6.705505         -182.46608
     26       2.00000          -6.705230         -182.45858
     27       2.00000          -6.704713         -182.44454
     28       2.00000          -6.703938         -182.42344
     29       2.00000          -6.703487         -182.41115
     30       2.00000          -6.702972         -182.39715
     31       2.00000          -6.702721         -182.39032
     32       2.00000          -6.702665         -182.38878
     33       2.00000          -6.701328         -182.35240
     34       2.00000          -6.700356         -182.32596
     35       2.00000          -6.699066         -182.29087
     36       2.00000          -6.694614         -182.16972
     37       2.00000          -1.064076          -28.95498
     38       2.00000          -1.057915          -28.78734
     39       2.00000          -1.020330          -27.76460
     40       2.00000          -1.005546          -27.36229
     41       2.00000          -1.001238          -27.24508
     42       2.00000          -0.999918          -27.20915
     43       2.00000          -0.998403          -27.16793
     44       2.00000          -0.996243          -27.10915
     45       2.00000          -0.995584          -27.09123
     46       2.00000          -0.993745          -27.04118
     47       2.00000          -0.990897          -26.96368
     48       2.00000          -0.986212          -26.83620
     49       2.00000          -0.982741          -26.74176
     50       2.00000          -0.968737          -26.36067
     51       2.00000          -0.948575          -25.81203
     52       2.00000          -0.943623          -25.67729
     53       2.00000          -0.934551          -25.43044
     54       2.00000          -0.923815          -25.13828
     55       2.00000          -0.707895          -19.26279
     56       2.00000          -0.703698          -19.14860
     57       2.00000          -0.701047          -19.07646
     58       2.00000          -0.699974          -19.04725
     59       2.00000          -0.687989          -18.72113
     60       2.00000          -0.682773          -18.57920
     61       2.00000          -0.677450          -18.43435
     62       2.00000          -0.674423          -18.35198
     63       2.00000          -0.673822          -18.33564
     64       2.00000          -0.672398          -18.29689
     65       2.00000          -0.670063          -18.23334
     66       2.00000          -0.666753          -18.14326
     67       2.00000          -0.665170          -18.10018
     68       2.00000          -0.664653          -18.08613
     69       2.00000          -0.662710          -18.03327
     70       2.00000          -0.661614          -18.00345
     71       2.00000          -0.658063          -17.90681
     72       2.00000          -0.655891          -17.84770
     73       2.00000          -0.651712          -17.73399
     74       2.00000          -0.638487          -17.37412
     75       2.00000          -0.579271          -15.76276
     76       2.00000          -0.576102          -15.67653
     77       2.00000          -0.571446          -15.54982
     78       2.00000          -0.568787          -15.47749
     79       2.00000          -0.564992          -15.37420
     80       2.00000          -0.559878          -15.23505
     81       2.00000          -0.559364          -15.22107
     82       2.00000          -0.557153          -15.16090
     83       2.00000          -0.552606          -15.03718
     84       2.00000          -0.551300          -15.00164
     85       2.00000          -0.548554          -14.92692
     86       2.00000          -0.544224          -14.80910
     87       2.00000          -0.540928          -14.71939
     88       2.00000          -0.528204          -14.37315
     89       2.00000          -0.498877          -13.57514
     90       2.00000          -0.497976          -13.55061
     91       2.00000          -0.496702          -13.51594
     92       2.00000          -0.490319          -13.34226
     93       2.00000          -0.486929          -13.25000
     94       2.00000          -0.483452          -13.15539
     95       2.00000          -0.482535          -13.13044
     96       2.00000          -0.476437          -12.96452
     97       2.00000          -0.475089          -12.92784
     98       2.00000          -0.470933          -12.81475
     99       2.00000          -0.468405          -12.74595
    100       2.00000          -0.467215          -12.71355
    101       2.00000          -0.465621          -12.67020
    102       2.00000          -0.464749          -12.64645
    103       2.00000          -0.461195          -12.54976
    104       2.00000          -0.451392          -12.28301
    105       2.00000          -0.412212          -11.21687
    106       2.00000          -0.407407          -11.08610
    107       2.00000          -0.403198          -10.97157
    108       2.00000          -0.397392          -10.81360
    109       0.00000          -0.178322           -4.85239
    110       0.00000          -0.176389           -4.79979
    111       0.00000          -0.158057           -4.30096
    112       0.00000          -0.156497           -4.25850
    113       0.00000          -0.115031           -3.13016
    114       0.00000          -0.112064           -3.04943
    115       0.00000          -0.110193           -2.99850
    116       0.00000          -0.107690           -2.93039
    117       0.00000          -0.102148           -2.77959
    118       0.00000          -0.101588           -2.76436
    119       0.00000          -0.099866           -2.71750
    120       0.00000          -0.098833           -2.68938
    121       0.00000          -0.095150           -2.58916
    122       0.00000          -0.090048           -2.45034
    123       0.00000          -0.084975           -2.31229
    124       0.00000          -0.077087           -2.09765
    125       0.00000          -0.075234           -2.04723
    126       0.00000          -0.040990           -1.11539
    127       0.00000          -0.037733           -1.02676
    128       0.00000          -0.033693           -0.91683
    129       0.00000          -0.030718           -0.83588
    130       0.00000          -0.029103           -0.79192
    131       0.00000          -0.026882           -0.73151
    132       0.00000          -0.018820           -0.51212
    133       0.00000          -0.014170           -0.38558
    134       0.00000          -0.012392           -0.33721
    135       0.00000          -0.009909           -0.26963
    136       0.00000          -0.006707           -0.18250
    137       0.00000          -0.003110           -0.08463
    138       0.00000          -0.001588           -0.04320
    139       0.00000           0.008729            0.23753
    140       0.00000           0.015876            0.43201
    141       0.00000           0.018937            0.51529
    142       0.00000           0.054231            1.47570
    143       0.00000           0.055076            1.49868
    144       0.00000           0.065128            1.77223
    145       0.00000           0.077081            2.09748
    146       0.00000           0.078812            2.14458
    147       0.00000           0.084114            2.28885
    148       0.00000           0.085143            2.31686
    149       0.00000           0.087996            2.39450
    150       0.00000           0.093563            2.54599
    151       0.00000           0.128086            3.48541
    152       0.00000           0.133215            3.62496
    153       0.00000           0.137291            3.73588
    154       0.00000           0.139283            3.79010
    155       0.00000           0.142409            3.87515
    156       0.00000           0.144592            3.93455
    157       0.00000           0.148786            4.04868
    158       0.00000           0.150080            4.08389
    159       0.00000           0.152704            4.15528
    160       0.00000           0.157247            4.27890
    161       0.00000           0.185052            5.03551
    162       0.00000           0.193042            5.25293
    163       0.00000           0.197894            5.38497
    164       0.00000           0.215152            5.85459
    165       0.00000           0.218685            5.95073
    166       0.00000           0.220643            6.00400
    167       0.00000           0.237142            6.45296
    168       0.00000           0.240428            6.54237
    169       0.00000           0.242550            6.60012
    170       0.00000           0.244522            6.65377
[...]
  |    N      3     3.761152 A      3.761152 A       -1.157357E-15 a.u.
  |    N      3     3.761152 A      3.761152 A       -9.570773E-16 a.u.
  |    N      0     4.198596 A      4.198596 A       -4.301378E-17 a.u.
  |    N      0     4.198596 A      4.198596 A       -3.549905E-18 a.u.
  |    N      0     4.302517 A      4.302517 A       -2.560430E-16 a.u.
  |    N      1     4.302517 A      4.302517 A        2.751338E-17 a.u.
  |    N      0     4.409010 A      4.409010 A       -1.531604E-16 a.u.
  |    N      1     4.463241 A      4.463241 A       -7.595764E-17 a.u.
  |    N      2     4.518138 A      4.518138 A        4.545423E-16 a.u.
  |    N      1     4.518138 A      4.573712 A        1.916110E-16 a.u.
  |    N      1     4.573712 A      4.573712 A       -9.511815E-17 a.u.
  |    N      2     4.573712 A      4.573712 A        1.958806E-15 a.u.
  |    N      2     4.573712 A      4.573712 A       -1.164034E-16 a.u.
  |    N      2     4.573712 A      4.573712 A        1.087022E-15 a.u.
  |    N      0     4.573712 A      4.629968 A        5.694116E-17 a.u.
  |    N      0     4.573712 A      4.629968 A        4.294663E-16 a.u.
  |    N      1     4.573712 A      4.629968 A       -1.090213E-15 a.u.
  |    N      1     4.573712 A      4.629968 A       -8.555411E-16 a.u.
  |    N      2     4.573712 A      4.629968 A        5.666013E-16 a.u.
  |    N      4     3.495147 A  2.647627E+02 A            2.494988 a.u.
  |    N      3     3.807414 A  1.563398E+03 A            6.062662 a.u.
  |    N      2     4.573712 A  2.408031E+04 A            7.498475 a.u.
  |    N      1     4.573712 A  2.550277E+06 A            1.848259 a.u.
  |    N      0     4.573712 A  4.174540E+12 A            0.627766 a.u.

  | Shrink_full_auxil_basis : there are       49  radial auxiliary wave functions
                            accepted and      21 rejected.
  | Shrink_full_auxil_basis : there are totally                3150 partial auxiliary wave functions.
  | Largest number of auxiliary wave functions per atom:         89
 
  | Maximal number of product basis functions per thread :    48    48
 
  | Minimal total memory requirement for three-center overlap :       3.821 Gbs
  | Number of local auxiliary basis functions on task:      0    48
  | Number of local auxiliary basis functions on task:      1    48
  | Number of local auxiliary basis functions on task:      2    48
  | Number of local auxiliary basis functions on task:      3    48
  | Number of local auxiliary basis functions on task:      4    48
  | Number of local auxiliary basis functions on task:      5    48
  | Number of local auxiliary basis functions on task:      6    48
  | Number of local auxiliary basis functions on task:      7    48
  | Number of local auxiliary basis functions on task:      8    48
  | Number of local auxiliary basis functions on task:      9    48
  | Number of local auxiliary basis functions on task:     10    48
  | Number of local auxiliary basis functions on task:     11    48
  | Number of local auxiliary basis functions on task:     12    48
  | Number of local auxiliary basis functions on task:     13    48
  | Number of local auxiliary basis functions on task:     14    48
  | Number of local auxiliary basis functions on task:     15    48
  | Number of local auxiliary basis functions on task:     16    48
  | Number of local auxiliary basis functions on task:     17    48
  | Number of local auxiliary basis functions on task:     18    48
  | Number of local auxiliary basis functions on task:     19    48
  | Number of local auxiliary basis functions on task:     20    48
  | Number of local auxiliary basis functions on task:     21    48
  | Number of local auxiliary basis functions on task:     22    48
  | Number of local auxiliary basis functions on task:     23    48
  | Number of local auxiliary basis functions on task:     24    48
  | Number of local auxiliary basis functions on task:     25    48
  | Number of local auxiliary basis functions on task:     26    48
  | Number of local auxiliary basis functions on task:     27    48
  | Number of local auxiliary basis functions on task:     28    48
  | Number of local auxiliary basis functions on task:     29    48
  | Number of local auxiliary basis functions on task:     30    48
  | Number of local auxiliary basis functions on task:     31    48
  | Number of local auxiliary basis functions on task:     32    48
  | Number of local auxiliary basis functions on task:     33    48
  | Number of local auxiliary basis functions on task:     34    48
  | Number of local auxiliary basis functions on task:     35    48
  | Number of local auxiliary basis functions on task:     36    46
  | Number of local auxiliary basis functions on task:     37    32
  | Number of local auxiliary basis functions on task:     38    32
  | Number of local auxiliary basis functions on task:     39    32
  | Number of local auxiliary basis functions on task:     40    32
  | Number of local auxiliary basis functions on task:     41    32
  | Number of local auxiliary basis functions on task:     42    32
  | Number of local auxiliary basis functions on task:     43    32
  | Number of local auxiliary basis functions on task:     44    32
  | Number of local auxiliary basis functions on task:     45    32
  | Number of local auxiliary basis functions on task:     46    32
  | Number of local auxiliary basis functions on task:     47    32
  | Number of local auxiliary basis functions on task:     48    32
  | Number of local auxiliary basis functions on task:     49    32
  | Number of local auxiliary basis functions on task:     50    32
  | Number of local auxiliary basis functions on task:     51    32
  | Number of local auxiliary basis functions on task:     52    32
  | Number of local auxiliary basis functions on task:     53    32
  | Number of local auxiliary basis functions on task:     54    32
  | Number of local auxiliary basis functions on task:     55    32
  | Number of local auxiliary basis functions on task:     56    32
  | Number of local auxiliary basis functions on task:     57    32
  | Number of local auxiliary basis functions on task:     58    32
  | Number of local auxiliary basis functions on task:     59    32
  | Number of local auxiliary basis functions on task:     60    32
  | Number of local auxiliary basis functions on task:     61    32
  | Number of local auxiliary basis functions on task:     62    32
  | Number of local auxiliary basis functions on task:     63    32
  | Number of local auxiliary basis functions on task:     64    32
  | Number of local auxiliary basis functions on task:     65    32
  | Number of local auxiliary basis functions on task:     66    32
  | Number of local auxiliary basis functions on task:     67    32
  | Number of local auxiliary basis functions on task:     68    32
  | Number of local auxiliary basis functions on task:     69    32
  | Number of local auxiliary basis functions on task:     70    32
  | Number of local auxiliary basis functions on task:     71    32
  | Number of local auxiliary basis functions on task:     72    32
  | Number of local auxiliary basis functions on task:     73    32
  | Number of local auxiliary basis functions on task:     74    32
  | Number of local auxiliary basis functions on task:     75    32
  | Number of local auxiliary basis functions on task:     76    32
  | Number of local auxiliary basis functions on task:     77    32
  | Number of local auxiliary basis functions on task:     78    32
  | Number of local auxiliary basis functions on task:     79    32
  | 2D aux task distribution:      8 X     10
  | 2D block size (nb_aux_2d):     64
  Minimal free memory per node after shrink_svd_auxil [GB]:     80.48
  Minimal free memory per node after allocate_basis_pairs [GB]:     80.48
 
  Basis pair condensation :    127260  -->      62369

------------------------------------------------------------
  End self-consistency iteration #    14       :  max(cpu_time)    wall_clock(cpu1)
  | Time for this iteration                     :       40.456 s          40.563 s
  | Charge density update                       :        0.000 s           0.000 s
  | Density mixing                              :        0.313 s           0.313 s
  | Hartree multipole update                    :        0.002 s           0.002 s
  | Hartree multipole summation                 :        0.209 s           0.209 s
  | Integration                                 :        0.197 s           0.198 s
  | Solution of K.-S. eqns.                     :        0.056 s           0.055 s
  | Total energy evaluation                     :        0.000 s           0.001 s

  Partial memory accounting:
  | Current value for overall tracked memory usage:
  |   Minimum:        9.487 MB (on task 79)
  |   Maximum:        9.664 MB (on task  0)
  |   Average:        9.605 MB
  | Peak value for overall tracked memory usage:
  |   Minimum:       17.648 MB (on task  7 after allocating gradient_basis_wave)
  |   Maximum:       19.367 MB (on task 65 after allocating gradient_basis_wave)
  |   Average:       18.385 MB
  | Largest tracked array allocation so far:
  |   Minimum:        4.297 MB (overlap_matrix on task  0)
  |   Maximum:        4.297 MB (overlap_matrix on task  0)
  |   Average:        4.297 MB
  Note:  These values currently only include a subset of arrays which are explicitly tracked.
  The "true" memory usage will be greater.
------------------------------------------------------------

  Energy and forces in a compact form:
  | Total energy uncorrected      :         -0.390442534726049E+05 eV
  | Total energy corrected        :         -0.390442534726049E+05 eV  <-- do not rely on this value for anything but (periodic) metals
  | Electronic free energy        :         -0.390442534726049E+05 eV

  ------------------------------------ 
  Start decomposition of the XC Energy 
  ------------------------------------ 
  X and C from original XC functional choice 
  Hartree-Fock Energy :          0.000000000 Ha              0.000000000 eV
  X Energy            :       -190.526419960 Ha          -5184.487670929 eV
  C Energy            :         -7.393119157 Ha           -201.177008038 eV
  XC Energy w/o HF    :       -197.919539117 Ha          -5385.664678966 eV
  Total XC Energy     :       -197.919539117 Ha          -5385.664678966 eV
  ------------------------------------ 
  LDA X and C from self-consistent density 
  X Energy LDA        :       -172.833950559 Ha          -4703.051083317 eV
  C Energy LDA        :        -14.411946860 Ha           -392.169027414 eV
  ------------------------------------ 
  End decomposition of the XC Energy 
  ------------------------------------ 

------------------------------------------------------------

  | Chemical Potential                          :    -5.54804857 eV
  | Note that, for insulating systems, the printed 'chemical potential' value is not uniquely defined.
  | It can be anywhere in the energy gap, as long as it correctly separates occupied and unoccupied states.
  | In systems with a gap, the physically relevant chemical potential is the VBM or HOMO.

  Writing energy levels:
  | Potential vacuum level, "upper" slab surface    :    -0.00934700 eV
  | Potential vacuum level, "lower" slab surface    :    -0.32496226 eV
  | Work function ("upper" slab surface)            :     5.53870157 eV
  | Work function ("lower" slab surface)            :     5.22308631 eV
  *** Band gap may exist, work functions will also be defined using VBM and CBM.
  | VBM (reference: upper vacuum level)             :     5.85017652 eV
  | Work function ("upper" surface, reference: VBM) :     5.85017652 eV
  | Work function ("lower" surface, reference: VBM) :     5.53456127 eV
  | CBM (reference: upper vacuum level)             :     1.83267540 eV
  | Work function ("upper" surface, reference: CBM) :     1.83267540 eV
  | Work function ("lower" surface, reference: CBM) :     1.51706014 eV

------------------------------------------------------------------------------
  Final output of selected total energy values:

  The following output summarizes some interesting total energy values
  at the end of a run (AFTER all relaxation, molecular dynamics, etc.).

  | Total energy of the DFT / Hartree-Fock s.c.f. calculation      :         -39044.253472605 eV
  | Final zero-broadening corrected energy (caution - metals only) :         -39044.253472605 eV
  | For reference only, the value of 1 Hartree used in FHI-aims is :             27.211384500 eV
  | For reference only, the overall average (free atom contribution
  | + realspace contribution) of the electrostatic potential after
  | s.c.f. convergence is                                          :             -0.863418715 eV

  Before relying on these values, please be sure to understand exactly which
  total energy value is referred to by a given number. Different objects may
  all carry the same name 'total energy'. Definitions:

  Total energy of the DFT / Hartree-Fock s.c.f. calculation:
  | Note that this energy does not include ANY quantities calculated after the
  | s.c.f. cycle, in particular not ANY RPA, MP2, etc. many-body perturbation terms.

  Final zero-broadening corrected energy:
  | For metallic systems only, a broadening of the occupation numbers at the Fermi
  | level can be extrapolated back to zero broadening by an electron-gas inspired
  | formula. For all systems that are not real metals, this value can be
  | meaningless and should be avoided.

------------------------------------------------------------------------------
  Methods described in the following list of references were used in this FHI-aims run.
  If you publish the results, please make sure to cite these reference if they apply.
  FHI-aims is an academic code, and for our developers (often, Ph.D. students
  and postdocs), scientific credit in the community is essential.
  Thank you for helping us!

  For any use of FHI-aims, please cite:

    Volker Blum, Ralf Gehrke, Felix Hanke, Paula Havu, Ville Havu,
    Xinguo Ren, Karsten Reuter, and Matthias Scheffler
    'Ab initio molecular simulations with numeric atom-centered orbitals'
    Computer Physics Communications 180, 2175-2196 (2009)
    http://doi.org/10.1016/j.cpc.2009.06.022


  For Hartree-Fock, hybrid functionals, or many-body perturbation theory used in your run, please cite:

    Xinguo Ren, Patrick Rinke, Volker Blum, Juergen Wieferink, Alex Tkatchenko,
    Andrea Sanfilippo, Karsten Reuter, and Matthias Scheffler,
    'Resolution-of-identity approach to Hartree-Fock, hybrid density functionals,
    RPA, MP2, and GW with numeric atom-centered orbital basis functions'
    New Journal of Physics 14, 053020 (2012).
    http://doi.org/10.1088/1367-2630/14/5/053020


  The provided symmetry information was generated with SPGlib:

    Atsushi Togo, Yusuke Seto, Dimitar Pashov
    SPGlib 1.7.3 obtained from http://spglib.sourceforge.net
    Licence: New BSD license
    Copyright (C) 2008 Atsushi Togo


  The ELSI infrastructure was used in your run to solve the Kohn-Sham electronic structure.
  Please check out https://wordpress.elsi-interchange.org to learn more.
  If scalability is important for your project, please acknowledge ELSI by citing:

    V. W-z. Yu, F. Corsetti, A. Garcia, W. P. Huhn, M. Jacquelin, W. Jia,
    B. Lange, L. Lin, J. Lu, W. Mi, A. Seifitokaldani, A. Vazquez-Mayagoitia,
    C. Yang, H. Yang, and V. Blum
    'ELSI: A unified software interface for Kohn-Sham electronic structure solvers'
    Computer Physics Communications 222, 267-285 (2018).
    http://doi.org/10.1016/j.cpc.2017.09.007


  For the real-space grid partitioning and parallelization used in this calculation, please cite:

    Ville Havu, Volker Blum, Paula Havu, and Matthias Scheffler,
    'Efficient O(N) integration for all-electron electronic structure calculation'
    'using numerically tabulated basis functions'
    Journal of Computational Physics 228, 8367-8379 (2009).
    http://doi.org/10.1016/j.jcp.2009.08.008


  The high-level electronic structure method used in your calculation
  employed our efficient localized resolution of identity for the Coulomb operator.
  Some calculations, especially large-scale hybrid density functional theory,
  are only possible thanks to this development. For this feature, please cite:

    Arvid Ihrig, Juergen Wieferink, Igor Ying Zhang, Matti Ropo, Xinguo Ren,
    Patrick Rinke, Matthias Scheffler, and Volker Blum,
    'Accurate localized resolution of identity approach for linear-scaling
    hybrid density functionals and for many-body perturbation theory'
    New Journal of Physics 117, 093020 (2015).
    http://doi.org/10.1088/1367-2630/17/9/093020

  Of course, there are many other important community references, e.g., those cited in the
  above references. Our list is limited to references that describe implementations in the
  FHI-aims code. The reason is purely practical (length of this list) - please credit others as well.

------------------------------------------------------------
          Leaving FHI-aims.
          Date     :  20240624, Time     :  151508.127

          Computational steps:
          | Number of self-consistency cycles          :           14
          | Number of SCF (re)initializations          :            1

          Detailed time accounting                     :  max(cpu_time)    wall_clock(cpu1)
          | Total time                                  :       57.228 s          58.884 s
          | Preparation time                            :        0.160 s           0.361 s
          | Boundary condition initalization            :        0.116 s           0.146 s
          | Grid partitioning                           :        0.459 s           0.470 s
          | Preloading free-atom quantities on grid     :        0.289 s           0.342 s
          | Free-atom superposition energy              :        0.041 s           0.042 s
          | Total time for integrations                 :        3.253 s           3.284 s
          | Product basis setup: Total time             :        0.000 s           0.000 s
          | Product basis: | 2-center integrations     :(       0.000 s)  (       0.000 s)
          | Product basis: | LVL 3-center & coefficient:(       0.000 s)  (       0.000 s)
          | Total time for solution of K.-S. equations  :        1.031 s           1.166 s
          | Total time for density update               :        4.182 s           4.211 s
          | Total time for mixing & preconditioning     :        4.230 s           4.228 s
          | Total time for Hartree multipole update     :        0.042 s           0.043 s
          | Total time for Hartree multipole sum        :        2.953 s           2.996 s
          | Total time for total energy evaluation      :        0.008 s           0.035 s
          | Total time for scaled ZORA corrections      :        0.000 s           0.000 s

          Partial memory accounting:
          | Residual value for overall tracked memory usage across tasks:     0.000000 MB (should be 0.000000 MB)
          | Peak values for overall tracked memory usage:
          |   Minimum:       17.648 MB (on task  7 after allocating gradient_basis_wave)
          |   Maximum:       19.367 MB (on task 65 after allocating gradient_basis_wave)
          |   Average:       18.385 MB
          | Largest tracked array allocation:
          |   Minimum:        4.297 MB (overlap_matrix on task  0)
          |   Maximum:        4.297 MB (overlap_matrix on task  0)
          |   Average:        4.297 MB
          Note:  These values currently only include a subset of arrays which are explicitly tracked.
          The "true" memory usage will be greater.

          Have a nice day.
------------------------------------------------------------
