------------------------------------------------------------
          Invoking FHI-aims ...

          When using FHI-aims, please cite the following reference:

            Volker Blum, Ralf Gehrke, Felix Hanke, Paula Havu,
            Ville Havu, Xinguo Ren, Karsten Reuter, and Matthias Scheffler,
            'Ab Initio Molecular Simulations with Numeric Atom-Centered Orbitals',
            Computer Physics Communications 180, 2175-2196 (2009)

          In addition, many other developments in FHI-aims are likely important for
          your particular application. If so, please cite them. A partial list of references
          is written at the end of this file. Thank you for giving credit to the authors
          of these developments.

          For general information about FHI-aims please find us at

            https://fhi-aims.org

          Online tutorials can be found at

            https://fhi-aims-club.gitlab.io/tutorials/tutorials-overview/

          For any questions about FHI-aims, please visit our slack channel at

            https://fhi-aims.slack.com

          and our main development and support site at

            https://aims-git.rz-berlin.mpg.de .

          The latter site, in particular, has a wiki to collect information, as well
          as an issue tracker to log discussions, suggest improvements, and report issues
          or bugs. https://aims-git.rz-berlin.mpg.de is also the main development site
          of the project and all new and updated code versions can be obtained there.
          Please send an email to aims-coordinators@fhi-berlin.mpg.de and we will add
          you to these sites. They are for you and everyone is welcome there.

------------------------------------------------------------



  Date     :  20250724, Time     :  142904.317
  Time zero on CPU 1             :   0.208452500000000E+01  s.
  Internal wall clock time zero  :           522599344.317  s.

  FHI-aims created a unique identifier for this run for later identification
  aims_uuid : 4B0CBD9A-03D4-47C0-A467-AFE45E5FB529

  Build configuration of the current instance of FHI-aims
  -------------------------------------------------------
  FHI-aims version      : 241121
  Commit number         : 31ecdff5a
  CMake host system     : Linux-5.14.0-427.42.1.el9_4.x86_64
  CMake version         : 3.28.2
  Fortran compiler      : /mpcdf/soft/RHEL_9/packages/znver4/openmpi/intel_2024.0-2024.0.2/4.1.6/bin/mpif90 (IntelLLVM) version 2024.0.2
  Fortran compiler flags: -g -O3 -align array64byte
  C compiler            : /mpcdf/soft/RHEL_9/packages/x86_64/intel/2024.0.2/bin/icx (IntelLLVM) version 2024.0.2
  C compiler flags      : -O3 -fp-model=precise
  C++ compiler          : /mpcdf/soft/RHEL_9/packages/x86_64/intel/2024.0.2/bin/icpx (IntelLLVM) version 2024.0.2
  C++ compiler flags    : -O3 -fp-model=precise
  HIP compiler          :
  HIP compiler flags    :
  HIP GPU arch          :
  Using MPI
  Using ScaLAPACK
  Using LibXC
  Using i-PI
  Using RLSY
  Linking against: /mpcdf/soft/RHEL_9/packages/x86_64/intel_oneapi/2024.0/mkl/latest/lib/libmkl_intel_lp64.so
                   /mpcdf/soft/RHEL_9/packages/x86_64/intel_oneapi/2024.0/mkl/latest/lib/libmkl_sequential.so
                   /mpcdf/soft/RHEL_9/packages/x86_64/intel_oneapi/2024.0/mkl/latest/lib/libmkl_core.so
                   /mpcdf/soft/RHEL_9/packages/x86_64/intel_oneapi/2024.0/mkl/latest/lib/libmkl_blacs_openmpi_lp64.so
                   /mpcdf/soft/RHEL_9/packages/x86_64/intel_oneapi/2024.0/mkl/latest/lib/libmkl_scalapack_lp64.so
                   /usr/lib64/libpthread.a
                   /usr/lib64/libm.so
                   /usr/lib64/libdl.a

  Using      128 parallel tasks.
  Task        0 on host vipc2014 reporting.
  Task        1 on host vipc2014 reporting.
  Task        2 on host vipc2014 reporting.
  Task        3 on host vipc2014 reporting.
  Task        4 on host vipc2014 reporting.
  Task        5 on host vipc2014 reporting.
  Task        6 on host vipc2014 reporting.
  Task        7 on host vipc2014 reporting.
  Task        8 on host vipc2014 reporting.
  Task        9 on host vipc2014 reporting.
  Task       10 on host vipc2014 reporting.
  Task       11 on host vipc2014 reporting.
  Task       12 on host vipc2014 reporting.
  Task       13 on host vipc2014 reporting.
  Task       14 on host vipc2014 reporting.
  Task       15 on host vipc2014 reporting.
  Task       16 on host vipc2014 reporting.
  Task       17 on host vipc2014 reporting.
  Task       18 on host vipc2014 reporting.
  Task       19 on host vipc2014 reporting.
  Task       20 on host vipc2014 reporting.
  Task       21 on host vipc2014 reporting.
  Task       22 on host vipc2014 reporting.
  Task       23 on host vipc2014 reporting.
  Task       24 on host vipc2014 reporting.
  Task       25 on host vipc2014 reporting.
  Task       26 on host vipc2014 reporting.
  Task       27 on host vipc2014 reporting.
  Task       28 on host vipc2014 reporting.
  Task       29 on host vipc2014 reporting.
  Task       30 on host vipc2014 reporting.
  Task       31 on host vipc2014 reporting.
  Task       32 on host vipc2014 reporting.
  Task       33 on host vipc2014 reporting.
  Task       34 on host vipc2014 reporting.
  Task       35 on host vipc2014 reporting.
  Task       36 on host vipc2014 reporting.
  Task       37 on host vipc2014 reporting.
  Task       38 on host vipc2014 reporting.
  Task       39 on host vipc2014 reporting.
  Task       40 on host vipc2014 reporting.
  Task       41 on host vipc2014 reporting.
  Task       42 on host vipc2014 reporting.
  Task       43 on host vipc2014 reporting.
  Task       44 on host vipc2014 reporting.
  Task       45 on host vipc2014 reporting.
  Task       46 on host vipc2014 reporting.
  Task       47 on host vipc2014 reporting.
  Task       48 on host vipc2014 reporting.
  Task       49 on host vipc2014 reporting.
  Task       50 on host vipc2014 reporting.
  Task       51 on host vipc2014 reporting.
  Task       52 on host vipc2014 reporting.
  Task       53 on host vipc2014 reporting.
  Task       54 on host vipc2014 reporting.
  Task       55 on host vipc2014 reporting.
  Task       56 on host vipc2014 reporting.
  Task       57 on host vipc2014 reporting.
  Task       58 on host vipc2014 reporting.
  Task       59 on host vipc2014 reporting.
  Task       60 on host vipc2014 reporting.
  Task       61 on host vipc2014 reporting.
  Task       62 on host vipc2014 reporting.
  Task       63 on host vipc2014 reporting.
  Task       64 on host vipc2014 reporting.
  Task       65 on host vipc2014 reporting.
  Task       66 on host vipc2014 reporting.
  Task       67 on host vipc2014 reporting.
  Task       68 on host vipc2014 reporting.
  Task       69 on host vipc2014 reporting.
  Task       70 on host vipc2014 reporting.
  Task       71 on host vipc2014 reporting.
  Task       72 on host vipc2014 reporting.
  Task       73 on host vipc2014 reporting.
  Task       74 on host vipc2014 reporting.
  Task       75 on host vipc2014 reporting.
  Task       76 on host vipc2014 reporting.
  Task       77 on host vipc2014 reporting.
  Task       78 on host vipc2014 reporting.
  Task       79 on host vipc2014 reporting.
  Task       80 on host vipc2014 reporting.
  Task       81 on host vipc2014 reporting.
  Task       82 on host vipc2014 reporting.
  Task       83 on host vipc2014 reporting.
  Task       84 on host vipc2014 reporting.
  Task       85 on host vipc2014 reporting.
  Task       86 on host vipc2014 reporting.
  Task       87 on host vipc2014 reporting.
  Task       88 on host vipc2014 reporting.
  Task       89 on host vipc2014 reporting.
  Task       90 on host vipc2014 reporting.
  Task       91 on host vipc2014 reporting.
  Task       92 on host vipc2014 reporting.
  Task       93 on host vipc2014 reporting.
  Task       94 on host vipc2014 reporting.
  Task       95 on host vipc2014 reporting.
  Task       96 on host vipc2014 reporting.
  Task       97 on host vipc2014 reporting.
  Task       98 on host vipc2014 reporting.
  Task       99 on host vipc2014 reporting.
  Task      100 on host vipc2014 reporting.
  Task      101 on host vipc2014 reporting.
  Task      102 on host vipc2014 reporting.
  Task      103 on host vipc2014 reporting.
  Task      104 on host vipc2014 reporting.
  Task      105 on host vipc2014 reporting.
  Task      106 on host vipc2014 reporting.
  Task      107 on host vipc2014 reporting.
  Task      108 on host vipc2014 reporting.
  Task      109 on host vipc2014 reporting.
  Task      110 on host vipc2014 reporting.
  Task      111 on host vipc2014 reporting.
  Task      112 on host vipc2014 reporting.
  Task      113 on host vipc2014 reporting.
  Task      114 on host vipc2014 reporting.
  Task      115 on host vipc2014 reporting.
  Task      116 on host vipc2014 reporting.
  Task      117 on host vipc2014 reporting.
  Task      118 on host vipc2014 reporting.
  Task      119 on host vipc2014 reporting.
  Task      120 on host vipc2014 reporting.
  Task      121 on host vipc2014 reporting.
  Task      122 on host vipc2014 reporting.
  Task      123 on host vipc2014 reporting.
  Task      124 on host vipc2014 reporting.
  Task      125 on host vipc2014 reporting.
  Task      126 on host vipc2014 reporting.
  Task      127 on host vipc2014 reporting.

  Obtaining array dimensions for all initial allocations:
  
  -----------------------------------------------------------------------
  Parsing control.in (first pass over file, find array dimensions only).
  The contents of control.in will be repeated verbatim below
  unless switched off by setting 'verbatim_writeout .false.' .
  in the first line of control.in .
  -----------------------------------------------------------------------
  
  xc                 pbe
  relativistic       atomic_zora scalar
  k_grid 6 6 1
  spin               none
  charge             0.
  # use_dipole_correction: for surface slab calculations
  use_dipole_correction
  many_body_dispersion_nl
  compute_forces     .true.
  
  # elsi_restart read_and_write 1
  ri_density_restart write
  ri_full_output .True.
  ri_output_density_only .True.
  default_max_l_prodbas 6
  default_prodbas_acc 1e-4
  # wave_threshold default: 1e-6 for no output, 1e-8 for output
  wave_threshold 1e-6
  
  # output band  0.66667 0.33333 0.00000  0.00000 0.00000 0.00000   11 K G
  # output band  0.00000 0.00000 0.00000  0.50000 0.00000 0.00000   6 G M
  # output band  0.50000 0.00000 0.00000  0.66667 0.33333 0.00000   9 M K
  
  
  ################################################################################
  #
  #  FHI-aims code project
  #  VB, Fritz-Haber Institut, 2009
  #
  #  Suggested "light" defaults for Zr atom (to be pasted into control.in file)
  #  Be sure to double-check any results obtained with these settings for post-processing,
  #  e.g., with the "tight" defaults and larger basis sets.
  #
  ################################################################################
    species          Zr
  #     global species definitions
      nucleus        40
      mass           91.224
  #
      l_hartree      4
  #
      cut_pot        3.5  1.5  1.0
      basis_dep_cutoff    1e-4
  #
      radial_base    58  5.0
      radial_multiplier  1
      angular_grids specified
        division   0.5825   50
        division   1.1060  110
        division   1.4586  194
        division   1.7061  302
  #      division   1.9320  434
  #      division   2.2803  590
  #      division   2.4151  770
  #      division   2.4626  974
  #      division   3.1649 1202
  #      outer_grid  974
        outer_grid  302
  ################################################################################
  #
  #  Definition of "minimal" basis
  #
  ################################################################################
  #     valence basis states
      valence      5  s   2.
      valence      4  p   6.
      valence      4  d   2.
  #     ion occupancy
      ion_occ      5  s   1.
      ion_occ      4  p   6.
      ion_occ      4  d   1.
  ################################################################################
  #
  #  Suggested additional basis functions. For production calculations,
  #  uncomment them one after another (the most important basis functions are
  #  listed first).
  #
  #  Constructed for dimers: 1.9, 2.25, 3.00, 4.00 Ang
  #
  ################################################################################
  #  "First tier" - improvements: -605.96 meV to -18.06 meV
       hydro 4 f 7.2
       ionic 4 d auto
       ionic 5 p auto
  #     hydro 5 g 10.4
       ionic 5 s auto
  #  "Second tier" - improvements: -32.47 meV to -1.41 meV
  #     hydro 4 f 10.4
  #     hydro 6 h 14.8
  #     hydro 4 d 6.2
  #     hydro 4 p 4.4
  #     hydro 4 f 20
  #     hydro 5 s 6
  #  "Third tier" - improvements: -1.99 meV and lower.
  #     hydro 4 f 5.8
  #     hydro 5 g 10.8
  #     hydro 2 p 1
  #     hydro 3 d 8
  #     hydro 6 h 14.4
  #     hydro 1 s 0.9
  #  Further functions (approx -0.40 meV and below possible)
  for_aux hydro 5 g 0.0
  
  
  
  
  ################################################################################
  #
  #  FHI-aims code project
  #  VB, Fritz-Haber Institut, 2009
  #
  #  Suggested "light" defaults for S atom (to be pasted into control.in file)
  #  Be sure to double-check any results obtained with these settings for post-processing,
  #  e.g., with the "tight" defaults and larger basis sets.
  #
  #  2020/09/08 Added f function to "light" after reinspection of Delta test outcomes.
  #             This was done for all of Al-Cl and is a tricky decision since it makes
  #             "light" calculations measurably more expensive for these elements.
  #             Nevertheless, outcomes for P, S, Cl (and to some extent, Si) appear
  #             to justify this choice.
  #
  ################################################################################
    species        S
  #     global species definitions
      nucleus             16
      mass                32.065
  #
      l_hartree           4
  #
      cut_pot             3.5          1.5  1.0
      basis_dep_cutoff    1e-4
  #
      radial_base         44 5.0
      radial_multiplier   1
      angular_grids       specified
        division   0.4665  110
        division   0.5810  194
        division   0.7139  302
  #      division   0.8274  434
  #      division   0.9105  590
  #      division   1.0975  770
  #      division   1.2028  974
  #      outer_grid  974
        outer_grid  302
  ################################################################################
  #
  #  Definition of "minimal" basis
  #
  ################################################################################
  #     valence basis states
      valence      3  s   2.
      valence      3  p   4.
  #     ion occupancy
      ion_occ      3  s   1.
      ion_occ      3  p   3.
  ################################################################################
  #
  #  Suggested additional basis functions. For production calculations,
  #  uncomment them one after another (the most important basis functions are
  #  listed first).
  #
  #  Constructed for dimers: 1.6 A, 1.9 A, 2.5 A, 3.25 A, 4.0 A
  #
  ################################################################################
  #  "First tier" - improvements: -652.81 meV to -45.53 meV
       ionic 3 d auto
       hydro 2 p 1.8
       hydro 4 f 7
       ionic 3 s auto
  #  "Second tier" - improvements: -30.20 meV to -1.74 meV
  #     hydro 4 d 6.2
  #     hydro 5 g 10.8
  #     hydro 4 p 4.9
  #     hydro 5 f 10
  #     hydro 1 s 0.8
  #  "Third tier" - improvements: -1.04 meV to -0.20 meV
  #     hydro 3 d 3.9
  #     hydro 3 d 2.7
  #     hydro 5 g 12
  #     hydro 4 p 10.4
  #     hydro 5 f 12.4
  #     hydro 2 s 1.9
  #  "Fourth tier" - improvements: -0.35 meV to -0.06 meV
  #     hydro 4 d 10.4
  #     hydro 4 p 7.2
  #     hydro 4 d 10
  #     hydro 5 g 19.2
  #     hydro 4 s 12
  
  -----------------------------------------------------------------------
  Completed first pass over input file control.in .
  -----------------------------------------------------------------------
  
  
  -----------------------------------------------------------------------
  Parsing geometry.in (first pass over file, find array dimensions only).
  The contents of geometry.in will be repeated verbatim below
  unless switched off by setting 'verbatim_writeout .false.' .
  in the first line of geometry.in .
  -----------------------------------------------------------------------
  
  #===============================================================================
  # Created using the Atomic Simulation Environment (ASE)
  
  # Wed Jul 23 17:29:36 2025
  
  #=======================================================
  lattice_vector 10.9181512971938517 0.0000000000000000 0.0000000000000000
  lattice_vector 5.4584066595824998 9.4559999675671254 0.0000000000000000
  lattice_vector 0.0000000000000000 0.0000000000000000 100.0000000000000000
  atom 0.5376311000000000 0.3539284800000000 47.0494302999999974 Zr
  atom 2.3068196400000001 1.3955346799999999 45.5735351300000033 S
  atom 4.1472772899999999 2.4487794400000000 48.3859917899999985 S
  atom 2.3988965699999998 3.3949004800000000 47.0466539600000004 Zr
  atom 4.1989532100000000 4.5009722500000002 45.5313397500000008 S
  atom 5.9640817899999998 5.5918707699999999 48.5218283700000015 S
  atom 4.1832361100000002 6.5883563599999997 46.9775459999999967 Zr
  atom 5.9984405399999998 7.6210267099999998 45.5532255299999989 S
  atom 7.9816868699999999 8.6715736499999991 48.3650281800000030 S
  atom 4.1932102499999999 0.3492384600000000 46.9981635600000018 Zr
  atom 5.9587047300000000 1.5104517399999999 45.4362974599999987 S
  atom 7.7612451299999998 2.3062100499999998 48.4292915300000004 S
  atom 6.0093565099999999 3.5263461700000001 46.9063007499999998 Zr
  atom 7.7981470100000001 4.5069456700000003 45.4321016199999974 S
  atom 9.8086043499999995 5.6143161499999996 48.3991517700000031 S
  atom 7.8426487500000004 6.6144894200000000 47.0699369499999989 Zr
  atom 9.7347274499999994 7.8649621700000001 45.4945001700000020 S
  atom 11.6006867899999992 8.6381379099999993 48.3094233799999984 S
  atom 7.7912263399999997 0.3136533700000000 46.9570557600000029 Zr
  atom 9.6362064400000005 1.5164432000000001 45.5382176500000000 S
  atom 11.5317736499999999 2.5413642699999999 48.5331474799999967 S
  atom 9.7028324700000006 3.5354737400000000 46.9862904100000023 Zr
  atom 11.3112699299999999 4.4238561499999998 45.4953304799999998 S
  atom 13.1259451600000006 5.5386260099999998 48.3904372300000034 S
  atom 11.4406792900000003 6.6292451699999999 46.9624242000000010 Zr
  atom 13.1792944799999994 7.5476869200000003 45.5546308300000007 S
  atom 14.8608630700000006 8.7148014099999997 48.3273697500000026 S
  atom 3.1278905400000001 0.5079500400000000 53.0506977599999985 Zr
  atom 4.9748969900000004 1.5280251899999999 51.4488750000000010 S
  atom 6.8976527000000001 2.5718253799999999 54.4438579300000001 S
  atom 4.9846823699999998 3.6299781300000000 53.0226724600000026 Zr
  atom 6.8274195700000000 4.7922239400000004 51.5865209899999968 S
  atom 8.6749191000000003 5.6160264900000003 54.5181777299999979 S
  atom 6.8384884000000001 6.9109826500000002 53.1570152399999998 Zr
  atom 8.6580363699999996 7.8357256000000000 51.5808984600000002 S
  atom 10.5347135200000004 9.0409197399999996 54.4034605900000017 S
  atom 6.8304089699999997 0.4876554600000000 52.9328396000000012 Zr
  atom 8.4593667799999999 1.5319585000000000 51.5778263099999990 S
  atom 10.4607002399999995 2.4126934400000000 54.5279964300000017 S
  atom 8.6288358899999995 3.6530204700000000 53.0489796800000022 Zr
  atom 10.4133384499999995 4.6584654199999997 51.5633407799999972 S
  atom 12.1677877999999993 5.6269210200000002 54.5283171999999965 S
  atom 10.5013492700000004 6.7960182700000002 53.0421205900000032 Zr
  atom 12.2139510599999994 7.7901008799999998 51.5507390400000034 S
  atom 14.1111623099999992 8.7947679900000004 54.5509070600000001 S
  atom 10.4022886099999994 0.4468635000000000 52.9863443099999998 Zr
  atom 1.4530913599999999 1.5084087399999999 51.5085115099999982 S
  atom 3.1910743799999999 2.7617266100000002 54.4477118100000013 S
  atom 12.2626822200000003 3.6192260599999999 53.0746917199999970 Zr
  atom 3.0313850300000000 4.7670271000000000 51.5520655700000034 S
  atom 5.0407843600000000 5.8653467800000003 54.4699896600000031 S
  atom 14.0546541999999999 6.7431133200000000 53.1332151200000027 Zr
  atom 4.9987187000000004 7.7888013599999999 51.5484259899999984 S
  atom 6.7680782500000003 8.7916399999999992 54.5191514500000025 S
  
  -----------------------------------------------------------------------
  Completed first pass over input file geometry.in .
  -----------------------------------------------------------------------
  

  Basic array size parameters:
  | Number of species                 :        2
  | Number of atoms                   :       54
  | Number of lattice vectors         :        3
  | Max. basis fn. angular momentum   :        4
  | Max. atomic/ionic basis occupied n:        5
  | Max. number of basis fn. types    :        3
  | Max. radial fns per species/type  :       10
  | Max. logarithmic grid size        :     1432
  | Max. radial integration grid size :       58
  | Max. angular integration grid size:      302
  | Max. angular grid division number :        8
  | Radial grid for Hartree potential :     1432
  | Number of spin channels           :        1

  Definition of standardized fundamental physical constants in this FHI-aims run:
  | Using the set of values used in FHI-aims up to 2024, which combines values from
  | different CODATA sets - see constants.f90.
  | Use the 'codata' keyword in control.in to change this selection.

  Memory overcommitment is allowed on your operating system.

------------------------------------------------------------
          Reading file control.in.
------------------------------------------------------------
  XC: Using PBE gradient-corrected functionals.
  Scalar relativistic treatment of kinetic energy: on-site free-atom approximation to ZORA.
  Found k-point grid:         6         6         1
  Spin treatment: No spin polarisation.
  Charge =   0.000000E+00: Neutral system requested explicitly.
  Using dipole correction.
  Using libMBD for calculating MBD and TS energies
  Forces will be computed.
  Threshold value for wave function integration:  0.1000E-05
 
  Reading configuration options for species Zr                  .
  | Found nuclear charge :  40.0000
  | Found atomic mass :    91.2240000000000      amu
  | Found l_max for Hartree potential  :   4
  | Found cutoff potl. onset [A], width [A], scale factor :    3.50000    1.50000    1.00000
  | Threshold for basis-dependent cutoff potential is   0.100000E-03
  | Found data for basic radial integration grid :    58 points, outermost radius =    5.000 A
  | Found multiplier for basic radial grid :   1
  | Found angular grid specification: user-specified.
  | Specified grid contains     5 separate shells.
  | Check grid settings after all constraints further below.
  | Found free-atom valence shell :  5 s   2.000
  | Found free-atom valence shell :  4 p   6.000
  | Found free-atom valence shell :  4 d   2.000
  | Found free-ion valence shell :  5 s   1.000
  | Found free-ion valence shell :  4 p   6.000
  | Found free-ion valence shell :  4 d   1.000
  | Found hydrogenic basis function :  4 f   7.200
  | Found ionic basis function :  4 d , default cutoff radius.
  | Found ionic basis function :  5 p , default cutoff radius.
  | Found ionic basis function :  5 s , default cutoff radius.
  | Found hydrogenic extended basis function :  5 g   0.000
 | Encountered keyword species, ending the description of species Zr                  .
  Species Zr                  : Missing cutoff potential type.
  Defaulting to exp(1/x)/(1-x)^2 type cutoff potential.
  Species Zr: No 'logarithmic' tag. Using default grid for free atom:
  | Default logarithmic grid data [bohr] : 0.1000E-03 0.1000E+03 0.1012E+01
  | Will include ionic basis functions of  2.0-fold positive Zr                   ion.
  Species Zr: On-site basis accuracy parameter (for Gram-Schmidt orthonormalisation) not specified.
  Using default value basis_acc =  0.1000000E-03.
  Species Zr                  : Using default innermost maximum threshold i_radial=  2 for radial functions.
  Species Zr                  : Default cutoff onset for free atom density etc. : 0.35000000E+01 AA.
  Species Zr                  : Basic radial grid will be enhanced according to radial_multiplier =   1, to contain    58 grid points.
 
  Reading configuration options for species S                   .
  | Found nuclear charge :  16.0000
  | Found atomic mass :    32.0650000000000      amu
  | Found l_max for Hartree potential  :   4
  | Found cutoff potl. onset [A], width [A], scale factor :    3.50000    1.50000    1.00000
  | Threshold for basis-dependent cutoff potential is   0.100000E-03
  | Found data for basic radial integration grid :    44 points, outermost radius =    5.000 A
  | Found multiplier for basic radial grid :   1
  | Found angular grid specification: user-specified.
  | Specified grid contains     4 separate shells.
  | Check grid settings after all constraints further below.
  | Found free-atom valence shell :  3 s   2.000
  | Found free-atom valence shell :  3 p   4.000
  | Found free-ion valence shell :  3 s   1.000
  | Found free-ion valence shell :  3 p   3.000
  | Found ionic basis function :  3 d , default cutoff radius.
  | Found hydrogenic basis function :  2 p   1.800
  | Found hydrogenic basis function :  4 f   7.000
  | Found ionic basis function :  3 s , default cutoff radius.
  Species S                   : Missing cutoff potential type.
  Defaulting to exp(1/x)/(1-x)^2 type cutoff potential.
  Species S : No 'logarithmic' tag. Using default grid for free atom:
  | Default logarithmic grid data [bohr] : 0.1000E-03 0.1000E+03 0.1012E+01
  | Will include ionic basis functions of  2.0-fold positive S                    ion.
  Species S : On-site basis accuracy parameter (for Gram-Schmidt orthonormalisation) not specified.
  Using default value basis_acc =  0.1000000E-03.
  Species S                   : Using default innermost maximum threshold i_radial=  2 for radial functions.
  Species S                   : Default cutoff onset for free atom density etc. : 0.35000000E+01 AA.
  Species S                   : Basic radial grid will be enhanced according to radial_multiplier =   1, to contain    44 grid points.
 
  Finished reading input file 'control.in'.
 
------------------------------------------------------------


------------------------------------------------------------
          Reading geometry description geometry.in.
------------------------------------------------------------
  | The smallest distance between any two atoms is         2.32319709 AA.
  | The first atom of this pair is atom number                     34 .
  | The second atom of this pair is atom number                    54 .
  | Wigner-Seitz cell of the first atom image           0     0     0 .
  | (The Wigner-Seitz cell of the second atom is 0 0 0  by definition.)

  Symmetry information by spglib:
  | Precision set to  0.1E-04
  | Number of Operations  : 1
  | Space group           : 1
  | International         : P1 985 S at
  | Schoenflies           : C1^1
  Input structure read successfully.
  The structure contains       54 atoms,  and a total of       1296.000 electrons.

  Input geometry:
  | Unit cell:
  |       10.91815130        0.00000000        0.00000000
  |        5.45840666        9.45599997        0.00000000
  |        0.00000000        0.00000000      100.00000000
  | Atomic structure:
  |       Atom                x [A]            y [A]            z [A]
  |    1: Species Zr            0.53763110        0.35392848       47.04943030
  |    2: Species S             2.30681964        1.39553468       45.57353513
  |    3: Species S             4.14727729        2.44877944       48.38599179
  |    4: Species Zr            2.39889657        3.39490048       47.04665396
  |    5: Species S             4.19895321        4.50097225       45.53133975
  |    6: Species S             5.96408179        5.59187077       48.52182837
  |    7: Species Zr            4.18323611        6.58835636       46.97754600
  |    8: Species S             5.99844054        7.62102671       45.55322553
  |    9: Species S             7.98168687        8.67157365       48.36502818
  |   10: Species Zr            4.19321025        0.34923846       46.99816356
  |   11: Species S             5.95870473        1.51045174       45.43629746
  |   12: Species S             7.76124513        2.30621005       48.42929153
  |   13: Species Zr            6.00935651        3.52634617       46.90630075
  |   14: Species S             7.79814701        4.50694567       45.43210162
  |   15: Species S             9.80860435        5.61431615       48.39915177
  |   16: Species Zr            7.84264875        6.61448942       47.06993695
  |   17: Species S             9.73472745        7.86496217       45.49450017
  |   18: Species S            11.60068679        8.63813791       48.30942338
  |   19: Species Zr            7.79122634        0.31365337       46.95705576
  |   20: Species S             9.63620644        1.51644320       45.53821765
  |   21: Species S            11.53177365        2.54136427       48.53314748
  |   22: Species Zr            9.70283247        3.53547374       46.98629041
  |   23: Species S            11.31126993        4.42385615       45.49533048
  |   24: Species S            13.12594516        5.53862601       48.39043723
  |   25: Species Zr           11.44067929        6.62924517       46.96242420
  |   26: Species S            13.17929448        7.54768692       45.55463083
  |   27: Species S            14.86086307        8.71480141       48.32736975
  |   28: Species Zr            3.12789054        0.50795004       53.05069776
  |   29: Species S             4.97489699        1.52802519       51.44887500
  |   30: Species S             6.89765270        2.57182538       54.44385793
  |   31: Species Zr            4.98468237        3.62997813       53.02267246
  |   32: Species S             6.82741957        4.79222394       51.58652099
  |   33: Species S             8.67491910        5.61602649       54.51817773
  |   34: Species Zr            6.83848840        6.91098265       53.15701524
  |   35: Species S             8.65803637        7.83572560       51.58089846
  |   36: Species S            10.53471352        9.04091974       54.40346059
  |   37: Species Zr            6.83040897        0.48765546       52.93283960
  |   38: Species S             8.45936678        1.53195850       51.57782631
  |   39: Species S            10.46070024        2.41269344       54.52799643
  |   40: Species Zr            8.62883589        3.65302047       53.04897968
  |   41: Species S            10.41333845        4.65846542       51.56334078
  |   42: Species S            12.16778780        5.62692102       54.52831720
  |   43: Species Zr           10.50134927        6.79601827       53.04212059
  |   44: Species S            12.21395106        7.79010088       51.55073904
  |   45: Species S            14.11116231        8.79476799       54.55090706
  |   46: Species Zr           10.40228861        0.44686350       52.98634431
  |   47: Species S             1.45309136        1.50840874       51.50851151
  |   48: Species S             3.19107438        2.76172661       54.44771181
  |   49: Species Zr           12.26268222        3.61922606       53.07469172
  |   50: Species S             3.03138503        4.76702710       51.55206557
  |   51: Species S             5.04078436        5.86534678       54.46998966
  |   52: Species Zr           14.05465420        6.74311332       53.13321512
  |   53: Species S             4.99871870        7.78880136       51.54842599
  |   54: Species S             6.76807825        8.79164000       54.51915145

  Lattice parameters for 3D lattice (in Angstroms) :    10.918151   10.918340  100.000000
  Angle(s) between unit vectors (in degrees)       :    90.000000   90.000000   60.004624


  Quantities derived from the lattice vectors (in Angstrom^-1):
  | Reciprocal lattice vector 1:  0.575481 -0.332192  0.000000
  | Reciprocal lattice vector 2:  0.000000  0.664465  0.000000
  | Reciprocal lattice vector 3:  0.000000  0.000000  0.062832
  | Unit cell volume                               :   0.103242E+05  Angstrom^3

  Fractional coordinates:
                         L1                L2                L3
       atom_frac         0.03052975        0.03742898        0.47049430  Zr
       atom_frac         0.13750107        0.14758193        0.45573535  S
       atom_frac         0.25038463        0.25896568        0.48385992  S
       atom_frac         0.04022798        0.35902078        0.47046654  Zr
       atom_frac         0.14661823        0.47599114        0.45531340  S
       atom_frac         0.25061160        0.59135689        0.48521828  S
       atom_frac         0.03481869        0.69673820        0.46977546  Zr
       atom_frac         0.14647706        0.80594614        0.45553226  S
       atom_frac         0.27258136        0.91704459        0.48365028  S
       atom_frac         0.36559439        0.03693300        0.46998164  Zr
       atom_frac         0.46590374        0.15973474        0.45436297  S
       atom_frac         0.58892775        0.24388854        0.48429292  S
       atom_frac         0.36396263        0.37292155        0.46906301  Zr
       atom_frac         0.47595472        0.47662285        0.45432102  S
       atom_frac         0.60154703        0.59373056        0.48399152  S
       atom_frac         0.36860482        0.69950184        0.47069937  Zr
       atom_frac         0.47578895        0.83174304        0.45494500  S
       atom_frac         0.60581547        0.91350867        0.48309423  S
       atom_frac         0.69702022        0.03316977        0.46957056  Zr
       atom_frac         0.80241155        0.16036836        0.45538218  S
       atom_frac         0.92184011        0.26875680        0.48533147  S
       atom_frac         0.70176772        0.37388682        0.46986290  Zr
       atom_frac         0.80211669        0.46783589        0.45495330  S
       atom_frac         0.90938600        0.58572610        0.48390437  S
       atom_frac         0.69737045        0.70106231        0.46962424  Zr
       atom_frac         0.80805324        0.79819024        0.45554631  S
       atom_frac         0.90036377        0.92161606        0.48327370  S
       atom_frac         0.25963004        0.05371722        0.53050698  Zr
       atom_frac         0.37486709        0.16159319        0.51448875  S
       atom_frac         0.49578772        0.27197815        0.54443858  S
       atom_frac         0.26463309        0.38388094        0.53022672  Zr
       atom_frac         0.37196255        0.50679187        0.51586521  S
       atom_frac         0.49762170        0.59391143        0.54518178  S
       atom_frac         0.26095758        0.73085688        0.53157015  Zr
       atom_frac         0.37871990        0.82865119        0.51580898  S
       atom_frac         0.48688727        0.95610404        0.54403461  S
       atom_frac         0.59981889        0.05157101        0.52932840  Zr
       atom_frac         0.69380381        0.16200915        0.51577826  S
       atom_frac         0.83054268        0.25514948        0.54527996  S
       atom_frac         0.59718504        0.38631773        0.53048980  Zr
       atom_frac         0.70747082        0.49264651        0.51563341  S
       atom_frac         0.81695963        0.59506356        0.54528317  S
       atom_frac         0.60251936        0.71869906        0.53042121  Zr
       atom_frac         0.70682043        0.82382624        0.51550739  S
       atom_frac         0.82747039        0.93007276        0.54550907  S
       atom_frac         0.92912615        0.04725714        0.52986344  Zr
       atom_frac         0.05333993        0.15951869        0.51508512  S
       atom_frac         0.14625992        0.29206077        0.54447712  S
       atom_frac         0.93179791        0.38274387        0.53074692  Zr
       atom_frac         0.02561364        0.50412723        0.51552066  S
       atom_frac         0.15158756        0.62027779        0.54469990  S
       atom_frac         0.93076577        0.71310420        0.53133215  Zr
       atom_frac         0.04604170        0.82368881        0.51548426  S
       atom_frac         0.15507832        0.92974197        0.54519151  S

  Slab Identifier: This is Z-oriented slab and maximum thickness of the vacuum is: 90.881 Angstrom.
 
  Finished reading input file 'geometry.in'.
 

 
  Consistency checks for stacksize environment parameter are next.
 
  | Maximum stacksize for task 0: unlimited
  | Maximum stacksize for task 1: unlimited
  | Maximum stacksize for task 2: unlimited
  | Maximum stacksize for task 3: unlimited
  | Maximum stacksize for task 4: unlimited
  | Maximum stacksize for task 5: unlimited
  | Maximum stacksize for task 6: unlimited
  | Maximum stacksize for task 7: unlimited
  | Maximum stacksize for task 8: unlimited
  | Maximum stacksize for task 9: unlimited
  | Maximum stacksize for task 10: unlimited
  | Maximum stacksize for task 11: unlimited
  | Maximum stacksize for task 12: unlimited
  | Maximum stacksize for task 13: unlimited
  | Maximum stacksize for task 14: unlimited
  | Maximum stacksize for task 15: unlimited
  | Maximum stacksize for task 16: unlimited
  | Maximum stacksize for task 17: unlimited
  | Maximum stacksize for task 18: unlimited
  | Maximum stacksize for task 19: unlimited
  | Maximum stacksize for task 20: unlimited
  | Maximum stacksize for task 21: unlimited
  | Maximum stacksize for task 22: unlimited
  | Maximum stacksize for task 23: unlimited
  | Maximum stacksize for task 24: unlimited
  | Maximum stacksize for task 25: unlimited
  | Maximum stacksize for task 26: unlimited
  | Maximum stacksize for task 27: unlimited
  | Maximum stacksize for task 28: unlimited
  | Maximum stacksize for task 29: unlimited
  | Maximum stacksize for task 30: unlimited
  | Maximum stacksize for task 31: unlimited
  | Maximum stacksize for task 32: unlimited
  | Maximum stacksize for task 33: unlimited
  | Maximum stacksize for task 34: unlimited
  | Maximum stacksize for task 35: unlimited
  | Maximum stacksize for task 36: unlimited
  | Maximum stacksize for task 37: unlimited
  | Maximum stacksize for task 38: unlimited
  | Maximum stacksize for task 39: unlimited
  | Maximum stacksize for task 40: unlimited
  | Maximum stacksize for task 41: unlimited
  | Maximum stacksize for task 42: unlimited
  | Maximum stacksize for task 43: unlimited
  | Maximum stacksize for task 44: unlimited
  | Maximum stacksize for task 45: unlimited
  | Maximum stacksize for task 46: unlimited
  | Maximum stacksize for task 47: unlimited
  | Maximum stacksize for task 48: unlimited
  | Maximum stacksize for task 49: unlimited
  | Maximum stacksize for task 50: unlimited
  | Maximum stacksize for task 51: unlimited
  | Maximum stacksize for task 52: unlimited
  | Maximum stacksize for task 53: unlimited
  | Maximum stacksize for task 54: unlimited
  | Maximum stacksize for task 55: unlimited
  | Maximum stacksize for task 56: unlimited
  | Maximum stacksize for task 57: unlimited
  | Maximum stacksize for task 58: unlimited
  | Maximum stacksize for task 59: unlimited
  | Maximum stacksize for task 60: unlimited
  | Maximum stacksize for task 61: unlimited
  | Maximum stacksize for task 62: unlimited
  | Maximum stacksize for task 63: unlimited
  | Maximum stacksize for task 64: unlimited
  | Maximum stacksize for task 65: unlimited
  | Maximum stacksize for task 66: unlimited
  | Maximum stacksize for task 67: unlimited
  | Maximum stacksize for task 68: unlimited
  | Maximum stacksize for task 69: unlimited
  | Maximum stacksize for task 70: unlimited
  | Maximum stacksize for task 71: unlimited
  | Maximum stacksize for task 72: unlimited
  | Maximum stacksize for task 73: unlimited
  | Maximum stacksize for task 74: unlimited
  | Maximum stacksize for task 75: unlimited
  | Maximum stacksize for task 76: unlimited
  | Maximum stacksize for task 77: unlimited
  | Maximum stacksize for task 78: unlimited
  | Maximum stacksize for task 79: unlimited
  | Maximum stacksize for task 80: unlimited
  | Maximum stacksize for task 81: unlimited
  | Maximum stacksize for task 82: unlimited
  | Maximum stacksize for task 83: unlimited
  | Maximum stacksize for task 84: unlimited
  | Maximum stacksize for task 85: unlimited
  | Maximum stacksize for task 86: unlimited
  | Maximum stacksize for task 87: unlimited
  | Maximum stacksize for task 88: unlimited
  | Maximum stacksize for task 89: unlimited
  | Maximum stacksize for task 90: unlimited
  | Maximum stacksize for task 91: unlimited
  | Maximum stacksize for task 92: unlimited
  | Maximum stacksize for task 93: unlimited
  | Maximum stacksize for task 94: unlimited
  | Maximum stacksize for task 95: unlimited
  | Maximum stacksize for task 96: unlimited
  | Maximum stacksize for task 97: unlimited
  | Maximum stacksize for task 98: unlimited
  | Maximum stacksize for task 99: unlimited
  | Maximum stacksize for task 100: unlimited
  | Maximum stacksize for task 101: unlimited
  | Maximum stacksize for task 102: unlimited
  | Maximum stacksize for task 103: unlimited
  | Maximum stacksize for task 104: unlimited
  | Maximum stacksize for task 105: unlimited
  | Maximum stacksize for task 106: unlimited
  | Maximum stacksize for task 107: unlimited
  | Maximum stacksize for task 108: unlimited
  | Maximum stacksize for task 109: unlimited
  | Maximum stacksize for task 110: unlimited
  | Maximum stacksize for task 111: unlimited
  | Maximum stacksize for task 112: unlimited
  | Maximum stacksize for task 113: unlimited
  | Maximum stacksize for task 114: unlimited
  | Maximum stacksize for task 115: unlimited
  | Maximum stacksize for task 116: unlimited
  | Maximum stacksize for task 117: unlimited
  | Maximum stacksize for task 118: unlimited
  | Maximum stacksize for task 119: unlimited
  | Maximum stacksize for task 120: unlimited
  | Maximum stacksize for task 121: unlimited
  | Maximum stacksize for task 122: unlimited
  | Maximum stacksize for task 123: unlimited
  | Maximum stacksize for task 124: unlimited
  | Maximum stacksize for task 125: unlimited
  | Maximum stacksize for task 126: unlimited
  | Maximum stacksize for task 127: unlimited
  | Current stacksize for task 0: unlimited
  | Current stacksize for task 1: unlimited
  | Current stacksize for task 2: unlimited
  | Current stacksize for task 3: unlimited
  | Current stacksize for task 4: unlimited
  | Current stacksize for task 5: unlimited
  | Current stacksize for task 6: unlimited
  | Current stacksize for task 7: unlimited
  | Current stacksize for task 8: unlimited
  | Current stacksize for task 9: unlimited
  | Current stacksize for task 10: unlimited
  | Current stacksize for task 11: unlimited
  | Current stacksize for task 12: unlimited
  | Current stacksize for task 13: unlimited
  | Current stacksize for task 14: unlimited
  | Current stacksize for task 15: unlimited
  | Current stacksize for task 16: unlimited
  | Current stacksize for task 17: unlimited
  | Current stacksize for task 18: unlimited
  | Current stacksize for task 19: unlimited
  | Current stacksize for task 20: unlimited
  | Current stacksize for task 21: unlimited
  | Current stacksize for task 22: unlimited
  | Current stacksize for task 23: unlimited
  | Current stacksize for task 24: unlimited
  | Current stacksize for task 25: unlimited
  | Current stacksize for task 26: unlimited
  | Current stacksize for task 27: unlimited
  | Current stacksize for task 28: unlimited
  | Current stacksize for task 29: unlimited
  | Current stacksize for task 30: unlimited
  | Current stacksize for task 31: unlimited
  | Current stacksize for task 32: unlimited
  | Current stacksize for task 33: unlimited
  | Current stacksize for task 34: unlimited
  | Current stacksize for task 35: unlimited
  | Current stacksize for task 36: unlimited
  | Current stacksize for task 37: unlimited
  | Current stacksize for task 38: unlimited
  | Current stacksize for task 39: unlimited
  | Current stacksize for task 40: unlimited
  | Current stacksize for task 41: unlimited
  | Current stacksize for task 42: unlimited
  | Current stacksize for task 43: unlimited
  | Current stacksize for task 44: unlimited
  | Current stacksize for task 45: unlimited
  | Current stacksize for task 46: unlimited
  | Current stacksize for task 47: unlimited
  | Current stacksize for task 48: unlimited
  | Current stacksize for task 49: unlimited
  | Current stacksize for task 50: unlimited
  | Current stacksize for task 51: unlimited
  | Current stacksize for task 52: unlimited
  | Current stacksize for task 53: unlimited
  | Current stacksize for task 54: unlimited
  | Current stacksize for task 55: unlimited
  | Current stacksize for task 56: unlimited
  | Current stacksize for task 57: unlimited
  | Current stacksize for task 58: unlimited
  | Current stacksize for task 59: unlimited
  | Current stacksize for task 60: unlimited
  | Current stacksize for task 61: unlimited
  | Current stacksize for task 62: unlimited
  | Current stacksize for task 63: unlimited
  | Current stacksize for task 64: unlimited
  | Current stacksize for task 65: unlimited
  | Current stacksize for task 66: unlimited
  | Current stacksize for task 67: unlimited
  | Current stacksize for task 68: unlimited
  | Current stacksize for task 69: unlimited
  | Current stacksize for task 70: unlimited
  | Current stacksize for task 71: unlimited
  | Current stacksize for task 72: unlimited
  | Current stacksize for task 73: unlimited
  | Current stacksize for task 74: unlimited
  | Current stacksize for task 75: unlimited
  | Current stacksize for task 76: unlimited
  | Current stacksize for task 77: unlimited
  | Current stacksize for task 78: unlimited
  | Current stacksize for task 79: unlimited
  | Current stacksize for task 80: unlimited
  | Current stacksize for task 81: unlimited
  | Current stacksize for task 82: unlimited
  | Current stacksize for task 83: unlimited
  | Current stacksize for task 84: unlimited
  | Current stacksize for task 85: unlimited
  | Current stacksize for task 86: unlimited
  | Current stacksize for task 87: unlimited
  | Current stacksize for task 88: unlimited
  | Current stacksize for task 89: unlimited
  | Current stacksize for task 90: unlimited
  | Current stacksize for task 91: unlimited
  | Current stacksize for task 92: unlimited
  | Current stacksize for task 93: unlimited
  | Current stacksize for task 94: unlimited
  | Current stacksize for task 95: unlimited
  | Current stacksize for task 96: unlimited
  | Current stacksize for task 97: unlimited
  | Current stacksize for task 98: unlimited
  | Current stacksize for task 99: unlimited
  | Current stacksize for task 100: unlimited
  | Current stacksize for task 101: unlimited
  | Current stacksize for task 102: unlimited
  | Current stacksize for task 103: unlimited
  | Current stacksize for task 104: unlimited
  | Current stacksize for task 105: unlimited
  | Current stacksize for task 106: unlimited
  | Current stacksize for task 107: unlimited
  | Current stacksize for task 108: unlimited
  | Current stacksize for task 109: unlimited
  | Current stacksize for task 110: unlimited
  | Current stacksize for task 111: unlimited
  | Current stacksize for task 112: unlimited
  | Current stacksize for task 113: unlimited
  | Current stacksize for task 114: unlimited
  | Current stacksize for task 115: unlimited
  | Current stacksize for task 116: unlimited
  | Current stacksize for task 117: unlimited
  | Current stacksize for task 118: unlimited
  | Current stacksize for task 119: unlimited
  | Current stacksize for task 120: unlimited
  | Current stacksize for task 121: unlimited
  | Current stacksize for task 122: unlimited
  | Current stacksize for task 123: unlimited
  | Current stacksize for task 124: unlimited
  | Current stacksize for task 125: unlimited
  | Current stacksize for task 126: unlimited
  | Current stacksize for task 127: unlimited
 
  Consistency checks for the contents of control.in are next.
 
  MPI_IN_PLACE appears to work with this MPI implementation.
  | Keeping use_mpi_in_place .true. (see manual).
  Explicit treatment of the Coulomb operator is needed, but the RI method is not specified.
  Coulomb operator: Defaulting to 'LVL fast' resolution of identity - RI_type = LVL_fast
  Species Zr: Using default value for prodbas_acc =   1.000000E-04.
  Species Zr: Using default value max_l_prodbas =     6.
  Species S: Using default value for prodbas_acc =   1.000000E-04.
  Species S: Using default value max_l_prodbas =     6.
  Target number of points in a grid batch is not set. Defaulting to  100
  Method for grid partitioning is not set. Defaulting to parallel hash+maxmin partitioning.
  Batch size limit is not set. Defaulting to    200
  By default, will store active basis functions for each batch.
  If in need of memory, prune_basis_once .false. can be used to disable this option.
  communication_type for Hartree potential was not specified.
  Defaulting to calc_hartree .
  Defaulting to Pulay charge density mixer.
  Pulay mixer: Number of relevant iterations not set.
  Defaulting to    8 iterations.
  Pulay mixer: Number of initial linear mixing iterations not set.
  Defaulting to    0 iterations.
  Work space size for distributed Hartree potential not set.
  Defaulting to   0.200000E+03 MB.
  Mixing parameter for charge density mixing has not been set.
  Using default: charge_mix_param =     0.0500.
  The mixing parameter will be adjusted in iteration number     2 of each s.c.f. cycle (i.e., each geometry step).
  Algorithm-dependent basis array size parameters:
  | n_max_pulay                         :        8
  Maximum number of self-consistency iterations not provided.
  Presetting  1000 iterations.
  Presetting      1001 iterations before the initial mixing cycle
  is restarted anyway using the sc_init_iter criterion / keyword.
  Presetting a factor      1.000 between actual scf density residual
  and density convergence criterion sc_accuracy_rho below which sc_init_iter
  takes no effect.
 * No s.c.f. convergence criteria (sc_accuracy_*) were provided in control.in.
 * The run will proceed with a reasonable default guess, but please check whether.
 * the s.c.f. cycles seem to take too much or too little time.
  Geometry relaxation not requested: no relaxation will be performed.
  Forces evaluation will include force correction term due to incomplete self-consistency (default).
 * Notice: The s.c.f. convergence criterion sc_accuracy_rho was not provided.
 * We used to stop in this case, and ask the user to provide reasonable
 * scf convergence criteria. However, this led some users to employ criteria
 * that led to extremely long run times, e.g., for simple relaxation.
 * We now preset a default value for sc_accuracy_rho if it is not set.
 * You may still wish to check if this setting is too tight or too loose for your needs.
 * Based on n_atoms and forces and force-correction status, FHI-aims chose sc_accuracy_rho =  0.240000E-04 .
  Force calculation: scf convergence accuracy of forces not set.
  Defaulting to 'sc_accuracy_forces not_checked'.
  Handling of forces: Unphysical translation and rotation will be removed from forces.
  No accuracy limit for integral partition fn. given. Defaulting to  0.1000E-14.
  No occupation type (smearing scheme) given. Defaulting to Gaussian broadening, width =  0.1000E-01 eV.
  The width will be adjusted in iteration number     2 of each s.c.f. cycle (i.e., each geometry step).
  No accuracy for occupation numbers given. Defaulting to  0.1000E-12.
  No threshold value for occupation numbers given. Defaulting to  0.0000E+00.
  No accuracy for fermi level given. Defaulting to  0.1000E-19.
  Maximum # of iterations to find E_F not set. Defaulting to  200.
  Preferred method for the eigenvalue solver ('KS_method') not specified in 'control.in'.
  Calling BLACS routine to test compilation state
  Since ScaLAPACK support is enabled, defaulting to ELPA (via ELSI).
  Will not use alltoall communication since running on < 1024 CPUs.
  Threshold for basis singularities not set.
  Default threshold for basis singularities:  0.1000E-04
  partition_type (choice of integration weights) for integrals was not specified.
  | Using a version of the partition function of Stratmann and coworkers ('stratmann_sparse').
  | At each grid point, the set of atoms used to build the partition table is smoothly restricted to
  | only those atoms whose free-atom density would be non-zero at that grid point.
  Partitioning for Hartree potential was not defined. Using partition_type for integrals.
  | Adjusted default value of keyword multip_moments_threshold to:       0.10000000E-11
  | This value may affect high angular momentum components of the Hartree potential in periodic systems.
  Angular momentum expansion for Kerker preconditioner not set explicitly.
  | Using default value of   0
  No explicit requirement for turning off preconditioner.
  | By default, it will be turned off when the charge convergence reaches
  | sc_accuracy_rho  =   0.240000E-04
  No special mixing parameter while Kerker preconditioner is on.
  Using default: charge_mix_param =     0.0500.
  Threshold for auxiliary basis singularities not set.
  Default threshold for auxiliary basis singularities:  0.1000E-04
  No q(lm)/r^(l+1) cutoff set for long-range Hartree potential.
  | Using default value of  0.100000E-09 .
  | Verify using the multipole_threshold keyword.
  Defaulting to new monopole extrapolation.
  Density update method: automatic selection selected.
  Using density matrix based charge density update.
  Using density matrix based charge density update.
  Using packed matrix style: index .
  Defaulting to use time-reversal symmetry for k-point grid.
  Charge integration errors on the 3D integration grid will be compensated
  by explicit normalization and distribution of residual charges.
  Use the "compensate_multipole_errors" flag to change this behaviour.
  Default to 1D ("use_logsbt") integrations for auxiliary 2-center integrals.
  Default onset of logarithmic r-grid for SBT is -38.000000000000
  Default onset of logarithmic k-grid for SBT is -25.000000000000
  Default range of logarithmic r- and k-grid for SBT is  45.000000000000
  Default number of logarithmic r- and k-grid for SBT is   4096
  Default of use_2d_corr is to use the efficient 2D distribution where possible
  Found no potential conflicts with setting 'use_local_index' for this calculation.
  Flag 'use_local_index' has not been set.
  Testing whether we classify this calculation as large-scale ...
  The calculation contains less than 100 atoms. This is most likely not a large-scale calculation.
  Not setting 'use_local_index'.
 
  Consistency checks for the contents of geometry.in are next.
 

  Range separation radius for Ewald summation (hartree_convergence_parameter):      5.00000000 bohr.
  Number of empty states per atom not set in control.in - providing a guess from actual geometry.
  | Total number of empty states used during s.c.f. cycle:      207
  If you use a very high smearing, use empty_states (per atom!) in control.in to increase this value.

  Structure-dependent array size parameters: 
  | Maximum number of distinct radial functions  :       24
  | Maximum number of basis functions            :     1782
  | Number of Kohn-Sham states (occupied + empty):      855
------------------------------------------------------------
 Error: The dipole correction needs vacuum z-level to be defined
 Vacuum level will be determined automatically.
 Determine position of vacuum level automatically
 **WARNING** : This feature is experimental and still requires some testing
 **PLEASE ** : If you see it fail, please report.
 Vacuum level determined:
 set_vacuum_level   99.99150 Bohr

  Checking k-grid inconsistencies now:
  | Checks passed.
  After read_input_data [GB]:    500.57

  Performing system and environment tests:
  | Environment variable OMP_NUM_THREADS correctly set to 1.
  | Checking for ScaLAPACK...
  | Testing pdtran()...
  | All pdtran() tests passed.
  After prepare_system [GB]:    500.49

------------------------------------------------------------
          Preparing all fixed parts of the calculation.
------------------------------------------------------------
  Determining machine precision:
    2.225073858507201E-308
  Setting up grids for atomic and cluster calculations.

  Creating wave function, potential, and density for free atoms.
  Runtime choices for atomic solver:
  | atomic solver xc        : PBE
  | compute density gradient: 1
  | compute kinetic density : F

  Species: Zr

  List of occupied orbitals and eigenvalues:
    n    l              occ      energy [Ha]    energy [eV]
    1    0           2.0000      -668.706582    -18196.4319
    2    0           2.0000       -91.061038     -2477.8969
    3    0           2.0000       -14.857587      -404.2955
    4    0           2.0000        -1.979040       -53.8524
    5    0           2.0000        -0.143402        -3.9022
    2    1           6.0000       -81.178513     -2208.9797
    3    1           6.0000       -11.652124      -317.0704
    4    1           6.0000        -1.169302       -31.8183
    3    2          10.0000        -6.398530      -174.1129
    4    2           2.0000        -0.111946        -3.0462


  Species: S

  List of occupied orbitals and eigenvalues:
    n    l              occ      energy [Ha]    energy [eV]
    1    0           2.0000       -88.678258     -2413.0582
    2    0           2.0000        -7.779365      -211.6873
    3    0           2.0000        -0.631865       -17.1939
    2    1           6.0000        -5.749610      -156.4549
    3    1           4.0000        -0.255301        -6.9471


  Adding cutoff potential to free-atom effective potential.
  Creating fixed part of basis set: Ionic, confined, hydrogenic.
 
  Zr                   ion:

  List of free ionic orbitals and eigenvalues:
    n    l      energy [Ha]    energy [eV]
    1    0      -669.421026    -18215.8729
    2    0       -91.769634     -2497.1788
    3    0       -15.560469      -423.4219
    4    0        -2.663352       -72.4735
    5    0        -0.640863       -17.4388
    2    1       -81.886574     -2228.2470
    3    1       -12.354892      -336.1937
    4    1        -1.844122       -50.1811
    3    2        -7.101714      -193.2475
    4    2        -0.726930       -19.7808


  List of ionic basis orbitals and eigenvalues:
    n    l      energy [Ha]    energy [eV]    outer radius [A]
    4    2        -0.726889       -19.7797       4.486525
    5    1        -0.465952       -12.6792       4.597573
    5    0        -0.640012       -17.4156       4.597573

 
  Zr                   hydrogenic:
 
  List of hydrogenic basis orbitals: 
    n    l      effective z      eigenvalue [eV]  inner max. [A]     outer max. [A]     outer radius [A]   
    4    3         7.200000       -44.0814           1.169212           1.169212           4.541709
 
  List of extra hydrogenic orbitals for auxiliary basis: 
    n    l      effective z      eigenvalue [eV]  inner max. [A]     outer max. [A]     outer radius [A]   
    5    4         0.000000        15.4116           2.997127           2.997127           4.654123
 
 
  S                    ion:

  List of free ionic orbitals and eigenvalues:
    n    l      energy [Ha]    energy [eV]
    1    0       -89.703778     -2440.9640
    2    0        -8.775428      -238.7916
    3    0        -1.470343       -40.0101
    2    1        -6.747660      -183.6132
    3    1        -1.048627       -28.5346


  List of ionic basis orbitals and eigenvalues:
    n    l      energy [Ha]    energy [eV]    outer radius [A]
    3    2        -0.495221       -13.4756       4.539062
    3    0        -1.470325       -40.0096       3.642502

 
  S                    hydrogenic:
 
  List of hydrogenic basis orbitals: 
    n    l      effective z      eigenvalue [eV]  inner max. [A]     outer max. [A]     outer radius [A]   
    2    1         1.800000       -10.9749           1.168531           1.168531           4.594893
    4    3         7.000000       -41.6658           1.212182           1.212182           4.539062
 
  Creating atomic-like basis functions for current effective potential.

  Species Zr                  :

  List of atomic basis orbitals and eigenvalues:
    n    l      energy [Ha]    energy [eV]    outer radius [A]
    1    0      -668.706582    -18196.4319       0.259930
    2    0       -91.061038     -2477.8969       0.725827
    3    0       -14.857587      -404.2955       1.771771
    4    0        -1.979040       -53.8524       4.169218
    5    0        -0.143402        -3.9022       4.597573
    2    1       -81.178513     -2208.9797       0.743792
    3    1       -11.652124      -317.0704       1.930067
    4    1        -1.169302       -31.8183       4.378160
    3    2        -6.398530      -174.1129       2.434714
    4    2        -0.111946        -3.0462       4.597573


  Species S                   :

  List of atomic basis orbitals and eigenvalues:
    n    l      energy [Ha]    energy [eV]    outer radius [A]
    1    0       -88.678258     -2413.0582       0.682391
    2    0        -7.779365      -211.6873       2.289014
    3    0        -0.631865       -17.1939       4.483910
    2    1        -5.749610      -156.4549       2.555240
    3    1        -0.255301        -6.9471       4.539062

  Assembling full basis from fixed parts.
  | Species Zr :   atomic orbital   1 s accepted.
  | Species Zr :   atomic orbital   2 s accepted.
  | Species Zr :   atomic orbital   3 s accepted.
  | Species Zr :   atomic orbital   4 s accepted.
  | Species Zr :   atomic orbital   5 s accepted.
  | Species Zr :    ionic orbital   5 s accepted.
  | Species Zr :   atomic orbital   2 p accepted.
  | Species Zr :   atomic orbital   3 p accepted.
  | Species Zr :   atomic orbital   4 p accepted.
  | Species Zr :    ionic orbital   5 p accepted.
  | Species Zr :   atomic orbital   3 d accepted.
  | Species Zr :    ionic orbital   4 d accepted.
  | Species Zr :   atomic orbital   4 d accepted.
  | Species Zr :    hydro orbital   4 f accepted.
  | Species S :   atomic orbital   1 s accepted.
  | Species S :   atomic orbital   2 s accepted.
  | Species S :    ionic orbital   3 s accepted.
  | Species S :   atomic orbital   3 s accepted.
  | Species S :   atomic orbital   2 p accepted.
  | Species S :   atomic orbital   3 p accepted.
  | Species S :    hydro orbital   2 p accepted.
  | Species S :    ionic orbital   3 d accepted.
  | Species S :    hydro orbital   4 f accepted.
 
  Basis size parameters after reduction:
  | Total number of radial functions:       23
  | Total number of basis functions :     1620
 
  Assembling extended basis for auxiliary basis.
  | Species Zr :   atomic orbital   1 s accepted.
  | Species Zr :   atomic orbital   2 s accepted.
  | Species Zr :   atomic orbital   3 s accepted.
  | Species Zr :   atomic orbital   4 s accepted.
  | Species Zr :   atomic orbital   5 s accepted.
  | Species Zr :    ionic orbital   5 s accepted.
  | Species Zr :   atomic orbital   2 p accepted.
  | Species Zr :   atomic orbital   3 p accepted.
  | Species Zr :   atomic orbital   4 p accepted.
  | Species Zr :    ionic orbital   5 p accepted.
  | Species Zr :   atomic orbital   3 d accepted.
  | Species Zr :    ionic orbital   4 d accepted.
  | Species Zr :   atomic orbital   4 d accepted.
  | Species Zr :    hydro orbital   4 f accepted.
  | Species Zr :    hydro orbital   5 g accepted.
  | Species S :   atomic orbital   1 s accepted.
  | Species S :   atomic orbital   2 s accepted.
  | Species S :    ionic orbital   3 s accepted.
  | Species S :   atomic orbital   3 s accepted.
  | Species S :   atomic orbital   2 p accepted.
  | Species S :   atomic orbital   3 p accepted.
  | Species S :    hydro orbital   2 p accepted.
  | Species S :    ionic orbital   3 d accepted.
  | Species S :    hydro orbital   4 f accepted.
  Per-task memory consumption for arrays in subroutine allocate_ext:
  |           8.841008MB.
 
  Extended basis size parameters after reduction:
  | Total number of radial functions:       24
  | Total number of basis functions :     1782
 
  Testing on-site integration grid accuracy.
  |  Species  Function  <phi|h_atom|phi> (log., in eV)  <phi|h_atom|phi> (rad., in eV)
           1        1             -18196.4319289647             -18196.4037056302
           1        2              -2477.8969157874              -2477.8965190963
           1        3               -404.2955207273               -404.2955072396
           1        4                -53.8524207606                -53.8524197465
           1        5                 -3.9325346527                 -3.9640981539 ***
           1        6                  7.4650119531                  7.2487021896 ***
           1        7              -2208.9797384608              -2208.9797360982
           1        8               -317.0704188561               -317.0704172349
           1        9                -31.8183401014                -31.8183399499
           1       10                  0.1214541437                  0.0960014764
           1       11               -174.1128704819               -174.1128700309
           1       12                 -2.6836904974                 -2.6839150058
           1       13                  6.1928909813                  6.0928612325 ***
           1       14                 17.1803315707                 17.1799919815
           2       15              -2413.0581659109              -2413.0570554886
           2       16               -211.6872814127               -211.6872738937
           2       17                -16.9208611991                -16.9208255642
           2       18                  7.5845503345                  7.5614252779
           2       19               -156.4548540501               -156.4548540107
           2       20                 -6.9485729304                 -6.9508389945
           2       21                  7.5803076288                  7.5258504832 ***
           2       22                  6.1173006980                  6.1127563631
           2       23                 24.7512183535                 24.7503558869
 * Note: Onsite integrals marked "***" above are less accurate than
 * onsite_accuracy_threshold =    0.03000 eV. Usually, this is harmless.
 * However, one integral did have a negative value. This integral could be important.
 * When in doubt, tighten the "radial" and/or "radial_multiplier" flags to check.

  Preparing densities etc. for the partition functions (integrals / Hartree potential).
 Frequency grid relative error: 0.12426359941031251E-009                        
   
 Will use parallel mode: atoms     
 BLACS grid: 8 x 16
 BLACS block size: 9                                                 

  Preparations completed.
  max(cpu_time)          :      0.231 s.
  Wall clock time (cpu1) :      0.232 s.
------------------------------------------------------------
  After prepare_scf [GB]:    497.53

  Initializing index lists of integration centers etc. from given atomic structure:
  Mapping all atomic coordinates to central unit cell.

  Initializing the k-points
  Using symmetry for reducing the k-points
  | k-points reduced from:       36 to       20
  | Number of k-points                             :        20
  The eigenvectors in the calculations are COMPLEX.
  | Number of basis functions in the Hamiltonian integrals :      8637
  | Number of basis functions in a single unit cell        :      1620
  | Number of centers in hartree potential         :      1587
  | Number of centers in hartree multipole         :       754
  | Number of centers in electron density summation:       632
  | Number of centers in basis integrals           :       680
  | Number of centers in integrals                 :       365
  | Number of centers in hamiltonian               :       634
  | Consuming          8 KiB for k_phase.
  | Number of super-cells (origin) [n_cells]                     :         147
  | Number of super-cells (after PM_index) [n_cells]             :          28
  | Number of super-cells in hamiltonian [n_cells_in_hamiltonian]:          28
  | Size of matrix packed + index [n_hamiltonian_matrix_size] :     1882440
  After initialize_bc_dependent_lists [GB]:    495.47

------------------------------------------------------------
          Begin self-consistency loop: Initialization.

          Date     :  20250724, Time     :  142905.705
------------------------------------------------------------
  Available memory per node after initialize_hartree_non_periodic_ewald [GB]:    495.47
  | Estimated reciprocal-space cutoff momentum G_max:         1.84432723 bohr^-1 .
  | Reciprocal lattice points for long-range Hartree potential:    7250
  Available memory per node after initialize_recip_hartree_potential [GB]:    495.47
  Using simple linear distribution as default method for k-point parallelism.
  * Using 128 tasks for Scalapack Eigenvalue solver.
  Detailed listing of tasks and assigned k-points:
   Task     0 k-point     1 on vipc2014
   Task     1 k-point     1 on vipc2014
   Task     2 k-point     1 on vipc2014
   Task     3 k-point     1 on vipc2014
   Task     4 k-point     1 on vipc2014
   Task     5 k-point     1 on vipc2014
   Task     6 k-point     1 on vipc2014
   Task     7 k-point     2 on vipc2014
   Task     8 k-point     2 on vipc2014
   Task     9 k-point     2 on vipc2014
   Task    10 k-point     2 on vipc2014
   Task    11 k-point     2 on vipc2014
   Task    12 k-point     2 on vipc2014
   Task    13 k-point     3 on vipc2014
   Task    14 k-point     3 on vipc2014
   Task    15 k-point     3 on vipc2014
   Task    16 k-point     3 on vipc2014
   Task    17 k-point     3 on vipc2014
   Task    18 k-point     3 on vipc2014
   Task    19 k-point     3 on vipc2014
   Task    20 k-point     4 on vipc2014
   Task    21 k-point     4 on vipc2014
   Task    22 k-point     4 on vipc2014
   Task    23 k-point     4 on vipc2014
   Task    24 k-point     4 on vipc2014
   Task    25 k-point     4 on vipc2014
   Task    26 k-point     5 on vipc2014
   Task    27 k-point     5 on vipc2014
   Task    28 k-point     5 on vipc2014
   Task    29 k-point     5 on vipc2014
   Task    30 k-point     5 on vipc2014
   Task    31 k-point     5 on vipc2014
   Task    32 k-point     6 on vipc2014
   Task    33 k-point     6 on vipc2014
   Task    34 k-point     6 on vipc2014
   Task    35 k-point     6 on vipc2014
   Task    36 k-point     6 on vipc2014
   Task    37 k-point     6 on vipc2014
   Task    38 k-point     6 on vipc2014
   Task    39 k-point     7 on vipc2014
   Task    40 k-point     7 on vipc2014
   Task    41 k-point     7 on vipc2014
   Task    42 k-point     7 on vipc2014
   Task    43 k-point     7 on vipc2014
   Task    44 k-point     7 on vipc2014
   Task    45 k-point     8 on vipc2014
   Task    46 k-point     8 on vipc2014
   Task    47 k-point     8 on vipc2014
   Task    48 k-point     8 on vipc2014
   Task    49 k-point     8 on vipc2014
   Task    50 k-point     8 on vipc2014
   Task    51 k-point     8 on vipc2014
   Task    52 k-point     9 on vipc2014
   Task    53 k-point     9 on vipc2014
   Task    54 k-point     9 on vipc2014
   Task    55 k-point     9 on vipc2014
   Task    56 k-point     9 on vipc2014
   Task    57 k-point     9 on vipc2014
   Task    58 k-point    10 on vipc2014
   Task    59 k-point    10 on vipc2014
   Task    60 k-point    10 on vipc2014
   Task    61 k-point    10 on vipc2014
   Task    62 k-point    10 on vipc2014
   Task    63 k-point    10 on vipc2014
   Task    64 k-point    11 on vipc2014
   Task    65 k-point    11 on vipc2014
   Task    66 k-point    11 on vipc2014
   Task    67 k-point    11 on vipc2014
   Task    68 k-point    11 on vipc2014
   Task    69 k-point    11 on vipc2014
   Task    70 k-point    11 on vipc2014
   Task    71 k-point    12 on vipc2014
   Task    72 k-point    12 on vipc2014
   Task    73 k-point    12 on vipc2014
   Task    74 k-point    12 on vipc2014
   Task    75 k-point    12 on vipc2014
   Task    76 k-point    12 on vipc2014
   Task    77 k-point    13 on vipc2014
   Task    78 k-point    13 on vipc2014
   Task    79 k-point    13 on vipc2014
   Task    80 k-point    13 on vipc2014
   Task    81 k-point    13 on vipc2014
   Task    82 k-point    13 on vipc2014
   Task    83 k-point    13 on vipc2014
   Task    84 k-point    14 on vipc2014
   Task    85 k-point    14 on vipc2014
   Task    86 k-point    14 on vipc2014
   Task    87 k-point    14 on vipc2014
   Task    88 k-point    14 on vipc2014
   Task    89 k-point    14 on vipc2014
   Task    90 k-point    15 on vipc2014
   Task    91 k-point    15 on vipc2014
   Task    92 k-point    15 on vipc2014
   Task    93 k-point    15 on vipc2014
   Task    94 k-point    15 on vipc2014
   Task    95 k-point    15 on vipc2014
   Task    96 k-point    16 on vipc2014
   Task    97 k-point    16 on vipc2014
   Task    98 k-point    16 on vipc2014
   Task    99 k-point    16 on vipc2014
   Task   100 k-point    16 on vipc2014
   Task   101 k-point    16 on vipc2014
   Task   102 k-point    16 on vipc2014
   Task   103 k-point    17 on vipc2014
   Task   104 k-point    17 on vipc2014
   Task   105 k-point    17 on vipc2014
   Task   106 k-point    17 on vipc2014
   Task   107 k-point    17 on vipc2014
   Task   108 k-point    17 on vipc2014
   Task   109 k-point    18 on vipc2014
   Task   110 k-point    18 on vipc2014
   Task   111 k-point    18 on vipc2014
   Task   112 k-point    18 on vipc2014
   Task   113 k-point    18 on vipc2014
   Task   114 k-point    18 on vipc2014
   Task   115 k-point    18 on vipc2014
   Task   116 k-point    19 on vipc2014
   Task   117 k-point    19 on vipc2014
   Task   118 k-point    19 on vipc2014
   Task   119 k-point    19 on vipc2014
   Task   120 k-point    19 on vipc2014
   Task   121 k-point    19 on vipc2014
   Task   122 k-point    20 on vipc2014
   Task   123 k-point    20 on vipc2014
   Task   124 k-point    20 on vipc2014
   Task   125 k-point    20 on vipc2014
   Task   126 k-point    20 on vipc2014
   Task   127 k-point    20 on vipc2014
  K-point:     1 Tasks:     7 split into      7 X      1 BLACS grid
  Calculating block size based on n_basis =         1620  max_nprow =            7  max_npcol =            2
  ScaLAPACK block size set to:           16
  Allocating        5.933 MB for ovlp_complex
  Allocating        5.933 MB for ham_complex
  Allocating        5.933 MB for eigenvec_complex
  Required Scalapack workspace - INTEGER:            1  REAL:             1  COMPLEX:            1
  Available memory per node after initialize_scalapack [GB]:    493.91
  Available memory per node after aims_elsi_init_scf [GB]:    493.90
  Available memory per node after initialize_fixed_grids [GB]:    493.90
  Partitioning the integration grid into batches with parallel hashing+maxmin method.
  | Number of batches:     5343
  | Maximal batch size:     200
  | Minimal batch size:      49
  | Average batch size:      83.333
  | Standard deviation of batch sizes:      19.201

  Integration load balanced across   128 MPI tasks.
  Work distribution over tasks is as follows:
  Task     0 has       3459 integration points.
  Task     1 has       3470 integration points.
  Task     2 has       3456 integration points.
  Task     3 has       3466 integration points.
  Task     4 has       3507 integration points.
  Task     5 has       3453 integration points.
  Task     6 has       3505 integration points.
  Task     7 has       3545 integration points.
  Task     8 has       3468 integration points.
  Task     9 has       3454 integration points.
  Task    10 has       3453 integration points.
  Task    11 has       3464 integration points.
  Task    12 has       3548 integration points.
  Task    13 has       3455 integration points.
  Task    14 has       3473 integration points.
  Task    15 has       3510 integration points.
  Task    16 has       3496 integration points.
  Task    17 has       3469 integration points.
  Task    18 has       3454 integration points.
  Task    19 has       3453 integration points.
  Task    20 has       3486 integration points.
  Task    21 has       3453 integration points.
  Task    22 has       3510 integration points.
  Task    23 has       3509 integration points.
  Task    24 has       3458 integration points.
  Task    25 has       3455 integration points.
  Task    26 has       3468 integration points.
  Task    27 has       3472 integration points.
  Task    28 has       3499 integration points.
  Task    29 has       3472 integration points.
  Task    30 has       3538 integration points.
  Task    31 has       3490 integration points.
  Task    32 has       3502 integration points.
  Task    33 has       3461 integration points.
  Task    34 has       3504 integration points.
  Task    35 has       3537 integration points.
  Task    36 has       3460 integration points.
  Task    37 has       3461 integration points.
  Task    38 has       3462 integration points.
  Task    39 has       3463 integration points.
  Task    40 has       3454 integration points.
  Task    41 has       3455 integration points.
  Task    42 has       3500 integration points.
  Task    43 has       3456 integration points.
  Task    44 has       3474 integration points.
  Task    45 has       3476 integration points.
  Task    46 has       3506 integration points.
  Task    47 has       3512 integration points.
  Task    48 has       3465 integration points.
  Task    49 has       3508 integration points.
  Task    50 has       3512 integration points.
  Task    51 has       3506 integration points.
  Task    52 has       3467 integration points.
  Task    53 has       3475 integration points.
  Task    54 has       3470 integration points.
  Task    55 has       3453 integration points.
  Task    56 has       3451 integration points.
  Task    57 has       3455 integration points.
  Task    58 has       3469 integration points.
  Task    59 has       3542 integration points.
  Task    60 has       3511 integration points.
  Task    61 has       3458 integration points.
  Task    62 has       3542 integration points.
  Task    63 has       3478 integration points.
  Task    64 has       3457 integration points.
  Task    65 has       3459 integration points.
  Task    66 has       3508 integration points.
  Task    67 has       3466 integration points.
  Task    68 has       3463 integration points.
  Task    69 has       3451 integration points.
  Task    70 has       3472 integration points.
  Task    71 has       3456 integration points.
  Task    72 has       3513 integration points.
  Task    73 has       3509 integration points.
  Task    74 has       3451 integration points.
  Task    75 has       3492 integration points.
  Task    76 has       3461 integration points.
  Task    77 has       3507 integration points.
  Task    78 has       3461 integration points.
  Task    79 has       3496 integration points.
[...]
  atom #   50
   Hellmann-Feynman              : -0.520800E+00  0.104949E+01 -0.141363E+02
   Ionic forces                  :  0.000000E+00  0.000000E+00  0.000000E+00
   Multipole                     :  0.252383E-01 -0.197115E-01 -0.223214E+00
   Hartree pot. SCF incomplete   :  0.852176E-05  0.143560E-04 -0.304131E-04
   Pulay + GGA                   :  0.116938E+01 -0.149919E+01  0.146744E+02
   Van der Waals                 :  0.852104E-03 -0.321602E-02 -0.654602E-02
   ----------------------------------------------------------------
   Total forces(  50)            :  0.674677E+00 -0.472613E+00  0.308287E+00
  atom #   51
   Hellmann-Feynman              :  0.127931E-01  0.714650E+00  0.126328E+02
   Ionic forces                  :  0.000000E+00  0.000000E+00  0.000000E+00
   Multipole                     :  0.414949E-01 -0.103018E+00  0.286041E+00
   Hartree pot. SCF incomplete   : -0.141670E-04 -0.905226E-05  0.322173E-04
   Pulay + GGA                   : -0.610923E+00 -0.171005E+01 -0.122406E+02
   Van der Waals                 : -0.801956E-03 -0.447967E-02 -0.567767E-01
   ----------------------------------------------------------------
   Total forces(  51)            : -0.557451E+00 -0.110291E+01  0.621535E+00
  atom #   52
   Hellmann-Feynman              : -0.662388E+00 -0.447240E+00  0.147378E+01
   Ionic forces                  :  0.000000E+00  0.000000E+00  0.000000E+00
   Multipole                     : -0.544001E-01 -0.230048E-01 -0.836220E-01
   Hartree pot. SCF incomplete   :  0.140081E-04  0.852176E-05  0.257426E-05
   Pulay + GGA                   :  0.985538E+00  0.738220E+00 -0.195559E+01
   Van der Waals                 : -0.825947E-02 -0.314488E-02 -0.369018E-01
   ----------------------------------------------------------------
   Total forces(  52)            :  0.260505E+00  0.264838E+00 -0.602334E+00
  atom #   53
   Hellmann-Feynman              :  0.155706E+00 -0.450580E+00 -0.144733E+02
   Ionic forces                  :  0.000000E+00  0.000000E+00  0.000000E+00
   Multipole                     : -0.922730E-02 -0.745570E-01 -0.204194E+00
   Hartree pot. SCF incomplete   : -0.273463E-04 -0.467494E-05 -0.382386E-04
   Pulay + GGA                   : -0.290116E+00  0.636150E+00  0.150892E+02
   Van der Waals                 : -0.216887E-02  0.307434E-03 -0.591025E-02
   ----------------------------------------------------------------
   Total forces(  53)            : -0.145834E+00  0.111315E+00  0.405735E+00
  atom #   54
   Hellmann-Feynman              : -0.629421E-01 -0.790926E+00  0.126716E+02
   Ionic forces                  :  0.000000E+00  0.000000E+00  0.000000E+00
   Multipole                     : -0.514382E-01  0.296987E+00  0.458571E+00
   Hartree pot. SCF incomplete   :  0.583167E-05  0.269121E-04  0.545565E-04
   Pulay + GGA                   :  0.367043E+00  0.250533E+01 -0.120931E+02
   Van der Waals                 :  0.271550E-02  0.203388E-02 -0.581154E-01
   ----------------------------------------------------------------
   Total forces(  54)            :  0.255384E+00  0.201345E+01  0.978974E+00

  Timings for VdW-like correction (Tkatchenko-Scheffler, MBD, XDM, LL and others):
  | CPU time:        1.376 s, Wall clock time:        1.398 s.
  Removing unitary transformations (pure translations, rotations) from forces on atoms.
  Atomic forces before filtering:
  | Net force on center of mass :   0.615998E-02  0.138677E-01 -0.115443E-01 eV/A
  Atomic forces after filtering:
  | Net force on center of mass :   0.115964E-14 -0.111504E-15  0.713624E-15 eV/A

  Energy and forces in a compact form:
  | Total energy uncorrected      :         -0.216981485545631E+07 eV
  | Total energy corrected        :         -0.216981485545631E+07 eV  <-- do not rely on this value for anything but (periodic) metals
  | Electronic free energy        :         -0.216981485545631E+07 eV
  Total atomic forces (unitary forces cleaned) [eV/Ang]:
  |    1         -0.572335656095315E+00          0.372759783930339E-01         -0.301410696979140E+00
  |    2         -0.140765128451775E+00         -0.448191497511490E+00         -0.370139610077217E+00
  |    3          0.638054679130161E+00         -0.971975231693234E-01          0.931482958512902E+00
  |    4         -0.502725454756455E+00          0.122277716419222E+01         -0.736556092172661E+00
  |    5         -0.564831828343630E+00          0.281836762917996E+00         -0.336022239983541E+00
  |    6          0.311625371463838E+00          0.891466037582457E-01         -0.458805596424144E+00
  |    7         -0.560009737121257E+00         -0.107396373418920E+00         -0.543316795568484E-01
  |    8          0.233073040898944E+00          0.517186390556338E+00          0.333281579888695E+00
  |    9         -0.115303000428231E+01          0.545946365350476E+00          0.122052345312736E+01
  |   10          0.948100901595021E+00          0.572289792838868E-01         -0.760888359753898E+00
  |   11          0.343781388372590E-01         -0.601233587252184E+00          0.201706523580496E+00
  |   12         -0.861113854589564E-01          0.861572204928245E+00         -0.116157736183847E-01
  |   13          0.710228363946807E+00         -0.556519808781665E+00          0.428178174966110E+00
  |   14          0.243716492740460E+00          0.580698171069515E+00          0.808733950125237E+00
  |   15         -0.175487863464971E+01         -0.334410961219408E+00          0.112187416580082E+01
  |   16         -0.118557294149841E+00         -0.551771744369437E+00         -0.104323754341633E+01
  |   17         -0.814752532078356E+00         -0.910146110325781E+00         -0.184218825317349E+00
  |   18         -0.139996293637928E+01          0.856246118726217E+00          0.153489774437283E+01
  |   19         -0.284095094874145E+00          0.111587732759069E+01         -0.185546870271458E+01
  |   20          0.493760973773187E+00         -0.120123036679050E+01          0.239861958969033E-01
  |   21         -0.720524559939804E+00         -0.100658615899844E+01         -0.718762482129915E-01
  |   22         -0.940470797447881E+00         -0.493952374777051E+00          0.436305042560648E+00
  |   23          0.111334407077394E+01          0.498523972643888E+00         -0.533927217226041E+00
  |   24          0.110872694283714E+01          0.146058455048306E-01          0.473634171319504E+00
  |   25          0.216008407785011E+00         -0.319088975388386E+00         -0.143479114826926E+01
  |   26          0.116463016020561E+01          0.544568293914061E+00         -0.111848627212430E+01
  |   27          0.203135302391540E+01         -0.283498352642925E+00          0.120380991795989E+01
  |   28          0.719960846731784E+00         -0.186617291566413E+00         -0.400397719737094E+00
  |   29         -0.137908788653077E+00          0.310674463572001E+00          0.943151596260753E+00
  |   30         -0.104249717661496E+01         -0.385337540156392E-01          0.382764056211103E+00
  |   31          0.879007678390199E+00          0.502863197967232E+00         -0.104037301922091E+01
  |   32         -0.704548523768470E-01         -0.573883709712331E+00          0.368571847236354E+00
  |   33          0.379157300227919E-02          0.865333437202050E+00          0.293802188273331E+00
  |   34          0.329546293672776E+00         -0.197125673025855E+01         -0.177065884231780E+01
  |   35         -0.473480736600424E-01          0.275788675077369E+00          0.374062606107088E+00
  |   36         -0.803795901397935E+00         -0.817333784150987E+00          0.813201909470001E+00
  |   37         -0.611929092278355E+00         -0.339293790576213E+00          0.401478024103903E+00
  |   38          0.190978957697459E+01          0.153928985604675E+00         -0.904079045405420E+00
  |   39          0.178741000201809E-01          0.471854527834806E+00         -0.336285602924220E+00
  |   40         -0.901703409257597E-01          0.196358270486327E+00         -0.494626357063802E+00
  |   41          0.341870259449037E+00          0.127467773646288E+00          0.145446407533143E+00
  |   42          0.361054927404788E+00          0.598830751696735E+00          0.432958093867748E+00
  |   43         -0.744625219187951E+00         -0.376139828369861E-01         -0.565764835865930E-01
  |   44          0.458200462512349E+00         -0.485589061209488E-01          0.516474069942790E-01
  |   45         -0.123705160916939E+00          0.675780554397101E+00         -0.418966864805610E+00
  |   46         -0.222815649710755E+00         -0.285838867626321E-01         -0.422378167031364E+00
  |   47         -0.695266194934364E+00         -0.131514287482119E-01          0.572543806318202E+00
  |   48          0.109670851149201E+00         -0.109555048795929E+01          0.849550952318958E+00
  |   49         -0.660910922062022E+00         -0.153563838244037E+00         -0.944740158224470E+00
  |   50          0.674563234858172E+00         -0.472870172238434E+00          0.308500286368607E+00
  |   51         -0.557565191335284E+00         -0.110316786626615E+01          0.621748550414119E+00
  |   52          0.260390864469945E+00          0.264581284873182E+00         -0.602120427202306E+00
  |   53         -0.145947741862942E+00          0.111058683543521E+00          0.405949189832008E+00
  |   54          0.255270113407865E+00          0.201319267937139E+01          0.979187893945285E+00

  ------------------------------------ 
  Start decomposition of the XC Energy 
  ------------------------------------ 
  X and C from original XC functional choice 
  Hartree-Fock Energy :          0.000000000 Ha              0.000000000 eV
  X Energy            :      -2928.360828937 Ha         -79684.752470953 eV
  C Energy            :        -59.468381397 Ha          -1618.216991778 eV
  XC Energy w/o HF    :      -2987.829210334 Ha         -81302.969462731 eV
  Total XC Energy     :      -2987.829210334 Ha         -81302.969462731 eV
  ------------------------------------ 
  LDA X and C from self-consistent density 
  X Energy LDA        :      -2761.941965399 Ha         -75156.264787161 eV
  C Energy LDA        :       -111.305158949 Ha          -3028.767476993 eV
  ------------------------------------ 
  End decomposition of the XC Energy 
  ------------------------------------ 

------------------------------------------------------------

  | Chemical Potential                          :    -5.98965753 eV
  | Note that, for insulating systems, the printed 'chemical potential' value is not uniquely defined.
  | It can be anywhere in the energy gap, as long as it correctly separates occupied and unoccupied states.
  | In systems with a gap, the physically relevant chemical potential is the VBM or HOMO.

  Writing energy levels:
  | Potential vacuum level, "upper" slab surface    :    -0.21246321 eV
  | Potential vacuum level, "lower" slab surface    :     0.14684910 eV
  | Work function ("upper" slab surface)            :     5.77719432 eV
  | Work function ("lower" slab surface)            :     6.13650663 eV
  *** Band gap may exist, work functions will also be defined using VBM and CBM.
  | VBM (reference: upper vacuum level)             :     6.19035154 eV
  | Work function ("upper" surface, reference: VBM) :     6.19035154 eV
  | Work function ("lower" surface, reference: VBM) :     6.54966386 eV
  | CBM (reference: upper vacuum level)             :     5.36403709 eV
  | Work function ("upper" surface, reference: CBM) :     5.36403709 eV
  | Work function ("lower" surface, reference: CBM) :     5.72334941 eV

------------------------------------------------------------------------------
  Final output of selected total energy values:

  The following output summarizes some interesting total energy values
  at the end of a run (AFTER all relaxation, molecular dynamics, etc.).

  | Total energy of the DFT / Hartree-Fock s.c.f. calculation      :       -2169814.855456311 eV
  | Final zero-broadening corrected energy (caution - metals only) :       -2169814.855456311 eV
  | For reference only, the value of 1 Hartree used in FHI-aims is :             27.211384500 eV
  | For reference only, the overall average (free atom contribution
  | + realspace contribution) of the electrostatic potential after
  | s.c.f. convergence is                                          :             -1.728414918 eV

  Before relying on these values, please be sure to understand exactly which
  total energy value is referred to by a given number. Different objects may
  all carry the same name 'total energy'. Definitions:

  Total energy of the DFT / Hartree-Fock s.c.f. calculation:
  | Note that this energy does not include ANY quantities calculated after the
  | s.c.f. cycle, in particular not ANY RPA, MP2, etc. many-body perturbation terms.

  Final zero-broadening corrected energy:
  | For metallic systems only, a broadening of the occupation numbers at the Fermi
  | level can be extrapolated back to zero broadening by an electron-gas inspired
  | formula. For all systems that are not real metals, this value can be
  | meaningless and should be avoided.

------------------------------------------------------------------------------
  Methods described in the following list of references were used in this FHI-aims run.
  If you publish the results, please make sure to cite these reference if they apply.
  FHI-aims is an academic code, and for our developers (often, Ph.D. students
  and postdocs), scientific credit in the community is essential.
  Thank you for helping us!

  For any use of FHI-aims, please cite:

    Volker Blum, Ralf Gehrke, Felix Hanke, Paula Havu, Ville Havu,
    Xinguo Ren, Karsten Reuter, and Matthias Scheffler
    'Ab initio molecular simulations with numeric atom-centered orbitals'
    Computer Physics Communications 180, 2175-2196 (2009)
    http://doi.org/10.1016/j.cpc.2009.06.022


  For Hartree-Fock, hybrid functionals, or many-body perturbation theory used in your run, please cite:

    Xinguo Ren, Patrick Rinke, Volker Blum, Juergen Wieferink, Alex Tkatchenko,
    Andrea Sanfilippo, Karsten Reuter, and Matthias Scheffler,
    'Resolution-of-identity approach to Hartree-Fock, hybrid density functionals,
    RPA, MP2, and GW with numeric atom-centered orbital basis functions'
    New Journal of Physics 14, 053020 (2012).
    http://doi.org/10.1088/1367-2630/14/5/053020


  The provided symmetry information was generated with SPGlib:

    Atsushi Togo, Yusuke Seto, Dimitar Pashov
    SPGlib 1.7.3 obtained from http://spglib.sourceforge.net
    Licence: New BSD license
    Copyright (C) 2008 Atsushi Togo


  The ELSI infrastructure was used in your run to solve the Kohn-Sham electronic structure.
  Please check out https://wordpress.elsi-interchange.org to learn more.
  If scalability is important for your project, please acknowledge ELSI by citing:

    V. W-z. Yu, F. Corsetti, A. Garcia, W. P. Huhn, M. Jacquelin, W. Jia,
    B. Lange, L. Lin, J. Lu, W. Mi, A. Seifitokaldani, A. Vazquez-Mayagoitia,
    C. Yang, H. Yang, and V. Blum
    'ELSI: A unified software interface for Kohn-Sham electronic structure solvers'
    Computer Physics Communications 222, 267-285 (2018).
    http://doi.org/10.1016/j.cpc.2017.09.007


  For the real-space grid partitioning and parallelization used in this calculation, please cite:

    Ville Havu, Volker Blum, Paula Havu, and Matthias Scheffler,
    'Efficient O(N) integration for all-electron electronic structure calculation'
    'using numerically tabulated basis functions'
    Journal of Computational Physics 228, 8367-8379 (2009).
    http://doi.org/10.1016/j.jcp.2009.08.008


  The high-level electronic structure method used in your calculation
  employed our efficient localized resolution of identity for the Coulomb operator.
  Some calculations, especially large-scale hybrid density functional theory,
  are only possible thanks to this development. For this feature, please cite:

    Arvid Ihrig, Juergen Wieferink, Igor Ying Zhang, Matti Ropo, Xinguo Ren,
    Patrick Rinke, Matthias Scheffler, and Volker Blum,
    'Accurate localized resolution of identity approach for linear-scaling
    hybrid density functionals and for many-body perturbation theory'
    New Journal of Physics 117, 093020 (2015).
    http://doi.org/10.1088/1367-2630/17/9/093020

  Of course, there are many other important community references, e.g., those cited in the
  above references. Our list is limited to references that describe implementations in the
  FHI-aims code. The reason is purely practical (length of this list) - please credit others as well.

 * A warning was issued further up regarding the accuracy of onsite integrals.
   An integral with a negative eigenvalue was among the flagged integrals.
   In most standard situations, this warning is probably harmless.
   If needed, this can be verified by adjusting the radial_multiplier flag.

------------------------------------------------------------
          Leaving FHI-aims.
          Date     :  20250724, Time     :  143412.003

          Computational steps:
          | Number of self-consistency cycles          :           22
          | Number of SCF (re)initializations          :            1

          Detailed time accounting                     :  max(cpu_time)    wall_clock(cpu1)
          | Total time                                  :      302.640 s         307.686 s
          | Preparation time                            :        0.231 s           0.232 s
          | Boundary condition initalization            :        0.113 s           0.114 s
          | Grid partitioning                           :        0.326 s           0.327 s
          | Preloading free-atom quantities on grid     :        0.079 s           0.094 s
          | Free-atom superposition energy              :        0.012 s           0.012 s
          | Total time for integrations                 :        4.639 s           4.674 s
          | Product basis setup: Total time             :        0.000 s           0.000 s
          | Product basis: | 2-center integrations     :(       0.000 s)  (       0.000 s)
          | Product basis: | LVL 3-center & coefficient:(       0.000 s)  (       0.000 s)
          | Total time for solution of K.-S. equations  :       23.682 s          23.821 s
          | Total time for density & force components   :       12.061 s          12.141 s
          | Total time for mixing & preconditioning     :        8.456 s           8.503 s
          | Total time for Hartree multipole update     :        0.162 s           0.161 s
          | Total time for Hartree multipole sum        :        1.863 s           1.871 s
          | Total time for total energy evaluation      :        0.003 s           0.007 s
          | Total time NSC force correction             :        0.338 s           0.339 s
          | Total time for scaled ZORA corrections      :        0.000 s           0.000 s
          | Total time for vdW-like corrections         :        1.376 s           1.398 s

          Partial memory accounting:
          | Residual value for overall tracked memory usage across tasks:     0.000000 MB (should be 0.000000 MB)
          | Peak values for overall tracked memory usage:
          |   Minimum:       60.937 MB (on task 114 after allocating d_wave)
          |   Maximum:       70.384 MB (on task  28 after allocating d_wave)
          |   Average:       65.430 MB
          | Largest tracked array allocation:
          |   Minimum:       14.362 MB (overlap_matrix on task   0)
          |   Maximum:       14.362 MB (overlap_matrix on task   0)
          |   Average:       14.362 MB
          Note:  These values currently only include a subset of arrays which are explicitly tracked.
          The "true" memory usage will be greater.

          Have a nice day.
------------------------------------------------------------
