------------------------------------------------------------
          Invoking FHI-aims ...

          When using FHI-aims, please cite the following reference:

            Volker Blum, Ralf Gehrke, Felix Hanke, Paula Havu,
            Ville Havu, Xinguo Ren, Karsten Reuter, and Matthias Scheffler,
            'Ab Initio Molecular Simulations with Numeric Atom-Centered Orbitals',
            Computer Physics Communications 180, 2175-2196 (2009)

          In addition, many other developments in FHI-aims are likely important for
          your particular application. If so, please cite them. A partial list of references
          is written at the end of this file. Thank you for giving credit to the authors
          of these developments.

          For general information about FHI-aims please find us at

            https://fhi-aims.org

          Online tutorials can be found at

            https://fhi-aims-club.gitlab.io/tutorials/tutorials-overview/

          For any questions about FHI-aims, please visit our slack channel at

            https://fhi-aims.slack.com

          and our main development and support site at

            https://aims-git.rz-berlin.mpg.de .

          The latter site, in particular, has a wiki to collect information, as well
          as an issue tracker to log discussions, suggest improvements, and report issues
          or bugs. https://aims-git.rz-berlin.mpg.de is also the main development site
          of the project and all new and updated code versions can be obtained there.
          Please send an email to aims-coordinators@fhi-berlin.mpg.de and we will add
          you to these sites. They are for you and everyone is welcome there.

------------------------------------------------------------



  Date     :  20240626, Time     :  193540.710
  Time zero on CPU 1             :   0.442502000000000E+00  s.
  Internal wall clock time zero  :           488662540.710  s.

  FHI-aims created a unique identifier for this run for later identification
  aims_uuid : F27387C6-B1EC-4CB7-AFA4-5AB96A23A97B

  Build configuration of the current instance of FHI-aims
  -------------------------------------------------------
  FHI-aims version      : 240507
  Commit number         : f9a188a83
  CMake host system     : Linux-4.12.14-122.201-default
  CMake version         : 3.18.4
  Fortran compiler      : /mpcdf/soft/SLE_12/packages/x86_64/intel_oneapi/2022.2/mpi/2021.6.0/bin/mpiifort (Intel) version 20.2.6.20220226
  Fortran compiler flags: -O3 -ip -fp-model precise
  C compiler            : /mpcdf/soft/SLE_12/packages/x86_64/intel_oneapi/2022.2/mpi/2021.6.0/bin/mpiicc (Intel) version 20.2.6.20220226
  C compiler flags      : -O3 -ip -fp-model precise -std=gnu99
  C++ compiler          : /mpcdf/soft/SLE_12/packages/x86_64/intel/2021.6.0/bin/icpc (Intel) version 20.2.6.20220226
  C++ compiler flags    : -O3 -ip -fp-model precise
  HIP compiler          :
  HIP compiler flags    :
  HIP GPU arch          :
  Using MPI
  Using ScaLAPACK
  Using LibXC
  Using i-PI
  Using RLSY
  Linking against: /mpcdf/soft/SLE_12/packages/x86_64/intel_oneapi/2022.2/mkl/latest/lib/intel64/libmkl_intel_lp64.so
                   /mpcdf/soft/SLE_12/packages/x86_64/intel_oneapi/2022.2/mkl/latest/lib/intel64/libmkl_sequential.so
                   /mpcdf/soft/SLE_12/packages/x86_64/intel_oneapi/2022.2/mkl/latest/lib/intel64/libmkl_core.so
                   /mpcdf/soft/SLE_12/packages/x86_64/intel_oneapi/2022.2/mkl/latest/lib/intel64/libmkl_blacs_intelmpi_lp64.so
                   /mpcdf/soft/SLE_12/packages/x86_64/intel_oneapi/2022.2/mkl/latest/lib/intel64/libmkl_scalapack_lp64.so

  Using      160 parallel tasks.
  Task        0 on host co1104 reporting.
  Task        1 on host co1104 reporting.
  Task        2 on host co1104 reporting.
  Task        3 on host co1104 reporting.
  Task        4 on host co1104 reporting.
  Task        5 on host co1104 reporting.
  Task        6 on host co1104 reporting.
  Task        7 on host co1104 reporting.
  Task        8 on host co1104 reporting.
  Task        9 on host co1104 reporting.
  Task       10 on host co1104 reporting.
  Task       11 on host co1104 reporting.
  Task       12 on host co1104 reporting.
  Task       13 on host co1104 reporting.
  Task       14 on host co1104 reporting.
  Task       15 on host co1104 reporting.
  Task       16 on host co1104 reporting.
  Task       17 on host co1104 reporting.
  Task       18 on host co1104 reporting.
  Task       19 on host co1104 reporting.
  Task       20 on host co1104 reporting.
  Task       21 on host co1104 reporting.
  Task       22 on host co1104 reporting.
  Task       23 on host co1104 reporting.
  Task       24 on host co1104 reporting.
  Task       25 on host co1104 reporting.
  Task       26 on host co1104 reporting.
  Task       27 on host co1104 reporting.
  Task       28 on host co1104 reporting.
  Task       29 on host co1104 reporting.
  Task       30 on host co1104 reporting.
  Task       31 on host co1104 reporting.
  Task       32 on host co1104 reporting.
  Task       33 on host co1104 reporting.
  Task       34 on host co1104 reporting.
  Task       35 on host co1104 reporting.
  Task       36 on host co1104 reporting.
  Task       37 on host co1104 reporting.
  Task       38 on host co1104 reporting.
  Task       39 on host co1104 reporting.
  Task       40 on host co1105 reporting.
  Task       41 on host co1105 reporting.
  Task       42 on host co1105 reporting.
  Task       43 on host co1105 reporting.
  Task       44 on host co1105 reporting.
  Task       45 on host co1105 reporting.
  Task       46 on host co1105 reporting.
  Task       47 on host co1105 reporting.
  Task       48 on host co1105 reporting.
  Task       49 on host co1105 reporting.
  Task       50 on host co1105 reporting.
  Task       51 on host co1105 reporting.
  Task       52 on host co1105 reporting.
  Task       53 on host co1105 reporting.
  Task       54 on host co1105 reporting.
  Task       55 on host co1105 reporting.
  Task       56 on host co1105 reporting.
  Task       57 on host co1105 reporting.
  Task       58 on host co1105 reporting.
  Task       59 on host co1105 reporting.
  Task       60 on host co1105 reporting.
  Task       61 on host co1105 reporting.
  Task       62 on host co1105 reporting.
  Task       63 on host co1105 reporting.
  Task       64 on host co1105 reporting.
  Task       65 on host co1105 reporting.
  Task       66 on host co1105 reporting.
  Task       67 on host co1105 reporting.
  Task       68 on host co1105 reporting.
  Task       69 on host co1105 reporting.
  Task       70 on host co1105 reporting.
  Task       71 on host co1105 reporting.
  Task       72 on host co1105 reporting.
  Task       73 on host co1105 reporting.
  Task       74 on host co1105 reporting.
  Task       75 on host co1105 reporting.
  Task       76 on host co1105 reporting.
  Task       77 on host co1105 reporting.
  Task       78 on host co1105 reporting.
  Task       79 on host co1105 reporting.
  Task       80 on host co1106 reporting.
  Task       81 on host co1106 reporting.
  Task       82 on host co1106 reporting.
  Task       83 on host co1106 reporting.
  Task       84 on host co1106 reporting.
  Task       85 on host co1106 reporting.
  Task       86 on host co1106 reporting.
  Task       87 on host co1106 reporting.
  Task       88 on host co1106 reporting.
  Task       89 on host co1106 reporting.
  Task       90 on host co1106 reporting.
  Task       91 on host co1106 reporting.
  Task       92 on host co1106 reporting.
  Task       93 on host co1106 reporting.
  Task       94 on host co1106 reporting.
  Task       95 on host co1106 reporting.
  Task       96 on host co1106 reporting.
  Task       97 on host co1106 reporting.
  Task       98 on host co1106 reporting.
  Task       99 on host co1106 reporting.
  Task      100 on host co1106 reporting.
  Task      101 on host co1106 reporting.
  Task      102 on host co1106 reporting.
  Task      103 on host co1106 reporting.
  Task      104 on host co1106 reporting.
  Task      105 on host co1106 reporting.
  Task      106 on host co1106 reporting.
  Task      107 on host co1106 reporting.
  Task      108 on host co1106 reporting.
  Task      109 on host co1106 reporting.
  Task      110 on host co1106 reporting.
  Task      111 on host co1106 reporting.
  Task      112 on host co1106 reporting.
  Task      113 on host co1106 reporting.
  Task      114 on host co1106 reporting.
  Task      115 on host co1106 reporting.
  Task      116 on host co1106 reporting.
  Task      117 on host co1106 reporting.
  Task      118 on host co1106 reporting.
  Task      119 on host co1106 reporting.
  Task      120 on host co1108 reporting.
  Task      121 on host co1108 reporting.
  Task      122 on host co1108 reporting.
  Task      123 on host co1108 reporting.
  Task      124 on host co1108 reporting.
  Task      125 on host co1108 reporting.
  Task      126 on host co1108 reporting.
  Task      127 on host co1108 reporting.
  Task      128 on host co1108 reporting.
  Task      129 on host co1108 reporting.
  Task      130 on host co1108 reporting.
  Task      131 on host co1108 reporting.
  Task      132 on host co1108 reporting.
  Task      133 on host co1108 reporting.
  Task      134 on host co1108 reporting.
  Task      135 on host co1108 reporting.
  Task      136 on host co1108 reporting.
  Task      137 on host co1108 reporting.
  Task      138 on host co1108 reporting.
  Task      139 on host co1108 reporting.
  Task      140 on host co1108 reporting.
  Task      141 on host co1108 reporting.
  Task      142 on host co1108 reporting.
  Task      143 on host co1108 reporting.
  Task      144 on host co1108 reporting.
  Task      145 on host co1108 reporting.
  Task      146 on host co1108 reporting.
  Task      147 on host co1108 reporting.
  Task      148 on host co1108 reporting.
  Task      149 on host co1108 reporting.
  Task      150 on host co1108 reporting.
  Task      151 on host co1108 reporting.
  Task      152 on host co1108 reporting.
  Task      153 on host co1108 reporting.
  Task      154 on host co1108 reporting.
  Task      155 on host co1108 reporting.
  Task      156 on host co1108 reporting.
  Task      157 on host co1108 reporting.
  Task      158 on host co1108 reporting.
  Task      159 on host co1108 reporting.

  Memory overcommitment is allowed on your operating system.

  Obtaining array dimensions for all initial allocations:
  
  -----------------------------------------------------------------------
  Parsing control.in (first pass over file, find array dimensions only).
  The contents of control.in will be repeated verbatim below
  unless switched off by setting 'verbatim_writeout .false.' .
  in the first line of control.in .
  -----------------------------------------------------------------------
  
  xc                 pbe
  relativistic       atomic_zora scalar
  k_grid             8 8 1
  spin               none
  charge             0.
  # use_dipole_correction: for surface slab calculations
  use_dipole_correction
  
  # elsi_restart read_and_write 1
  ri_density_restart write
  ri_full_output .True.
  ri_output_density_only .True.
  default_max_l_prodbas 6
  default_prodbas_acc 1e-4
  # wave_threshold default: 1e-6 for no output, 1e-8 for output
  wave_threshold 1e-6
  
  
  
  
  ################################################################################
  #
  #  FHI-aims code project
  #  VB, Fritz-Haber Institut, 2009
  #
  #  Suggested "light" defaults for Ti atom (to be pasted into control.in file)
  #  Be sure to double-check any results obtained with these settings for post-processing,
  #  e.g., with the "tight" defaults and larger basis sets.
  #
  ################################################################################
    species        Ti
  #     global species definitions
      nucleus             22
      mass                47.867
  #
      l_hartree           4
  #
      cut_pot             3.5          1.5  1.0
      basis_dep_cutoff    1e-4
  #
      radial_base         48 5.0
      radial_multiplier   1
      angular_grids       specified
        division   0.5171   50
        division   0.9824  110
        division   1.2917  194
        division   1.4940  302
  #      division   1.6934  434
  #      division   1.8425  590
  #      division   2.1901  770
  #      division   2.2896  974
  #      division   2.8244 1202
  #      outer_grid  974
        outer_grid  302
  ################################################################################
  #
  #  Definition of "minimal" basis
  #
  ################################################################################
  #     valence basis states
      valence      4  s   2.
      valence      3  p   6.
      valence      3  d   2.
  #     ion occupancy
      ion_occ      4  s   1.
      ion_occ      3  p   6.
      ion_occ      3  d   1.
  ################################################################################
  #
  #  Suggested additional basis functions. For production calculations,
  #  uncomment them one after another (the most important basis functions are
  #  listed first).
  #
  #  Constructed for dimers: 1.6 A, 1.85 A, 2.5 A, 3.25 A, 4.25 A
  #
  ################################################################################
  #  "First tier" - improvements: -396.25 meV to -19.41 meV
       hydro 4 f 8
       hydro 3 d 2.7
       ionic 4 p auto
  #     hydro 5 g 11.6
       ionic 4 s auto
  #  "Second tier" - improvements: -16.30 meV to -2.03 meV
  #     hydro 3 d 4.4
  #     hydro 6 h 16
  #     hydro 4 f 9.4
  #     hydro 4 p 4.5
  #     hydro 1 s 0.5
  #  "Third tier" - improvements: -6.28 meV to -0.37 meV
  #     hydro 4 d 6.4
  #     hydro 4 f 10
  #     hydro 5 g 12
  #     hydro 2 p 1.7
  #     hydro 6 h 16.4
  #     hydro 4 s 3.8
  #  Further basis functions: -0.45 meV and smaller improvements
  #     hydro 3 d 8.8
  #     hydro 5 p 18
  #     hydro 4 f 22.4
  #     hydro 5 f 7.2  # -0.16 meV
  #     hydro 3 d 2.1  # -0.11 meV
  #     hydro 5 g 7.4  # -0.09 meV
  
  
  
  
  ################################################################################
  #
  #  FHI-aims code project
  #  VB, Fritz-Haber Institut, 2009
  #
  #  Suggested "light" defaults for S atom (to be pasted into control.in file)
  #  Be sure to double-check any results obtained with these settings for post-processing,
  #  e.g., with the "tight" defaults and larger basis sets.
  #
  #  2020/09/08 Added f function to "light" after reinspection of Delta test outcomes.
  #             This was done for all of Al-Cl and is a tricky decision since it makes
  #             "light" calculations measurably more expensive for these elements.
  #             Nevertheless, outcomes for P, S, Cl (and to some extent, Si) appear
  #             to justify this choice.
  #
  ################################################################################
    species        S
  #     global species definitions
      nucleus             16
      mass                32.065
  #
      l_hartree           4
  #
      cut_pot             3.5          1.5  1.0
      basis_dep_cutoff    1e-4
  #
      radial_base         44 5.0
      radial_multiplier   1
      angular_grids       specified
        division   0.4665  110
        division   0.5810  194
        division   0.7139  302
  #      division   0.8274  434
  #      division   0.9105  590
  #      division   1.0975  770
  #      division   1.2028  974
  #      outer_grid  974
        outer_grid  302
  ################################################################################
  #
  #  Definition of "minimal" basis
  #
  ################################################################################
  #     valence basis states
      valence      3  s   2.
      valence      3  p   4.
  #     ion occupancy
      ion_occ      3  s   1.
      ion_occ      3  p   3.
  ################################################################################
  #
  #  Suggested additional basis functions. For production calculations,
  #  uncomment them one after another (the most important basis functions are
  #  listed first).
  #
  #  Constructed for dimers: 1.6 A, 1.9 A, 2.5 A, 3.25 A, 4.0 A
  #
  ################################################################################
  #  "First tier" - improvements: -652.81 meV to -45.53 meV
       ionic 3 d auto
       hydro 2 p 1.8
       hydro 4 f 7
       ionic 3 s auto
  #  "Second tier" - improvements: -30.20 meV to -1.74 meV
  #     hydro 4 d 6.2
  #     hydro 5 g 10.8
  #     hydro 4 p 4.9
  #     hydro 5 f 10
  #     hydro 1 s 0.8
  #  "Third tier" - improvements: -1.04 meV to -0.20 meV
  #     hydro 3 d 3.9
  #     hydro 3 d 2.7
  #     hydro 5 g 12
  #     hydro 4 p 10.4
  #     hydro 5 f 12.4
  #     hydro 2 s 1.9
  #  "Fourth tier" - improvements: -0.35 meV to -0.06 meV
  #     hydro 4 d 10.4
  #     hydro 4 p 7.2
  #     hydro 4 d 10
  #     hydro 5 g 19.2
  #     hydro 4 s 12
  
  
  -----------------------------------------------------------------------
  Completed first pass over input file control.in .
  -----------------------------------------------------------------------
  
  
  -----------------------------------------------------------------------
  Parsing geometry.in (first pass over file, find array dimensions only).
  The contents of geometry.in will be repeated verbatim below
  unless switched off by setting 'verbatim_writeout .false.' .
  in the first line of geometry.in .
  -----------------------------------------------------------------------
  
  #===============================================================================
  # Created using the Atomic Simulation Environment (ASE)
  
  # Wed Jun 26 17:56:42 2024
  
  #=======================================================
  lattice_vector 10.2236844471158008 0.0000000000000000 0.0000000000000000
  lattice_vector 5.1118422235579022 8.8539704514781459 0.0000000000000000
  lattice_vector 0.0000000000000000 0.0000000000000000 100.0000000000000000
  atom 0.4997893400000000 0.3485970200000000 47.1963984799999992 Ti
  atom 2.1563564199999998 1.3085092800000000 45.7472284799999969 S
  atom 3.8813070000000001 2.2950151499999998 48.4288466000000000 S
  atom 2.2614369499999998 3.1466463500000001 47.1925657399999992 Ti
  atom 3.9329685099999998 4.2132703400000002 45.7050330900000006 S
  atom 5.5825900300000004 5.2374299799999999 48.5646831899999967 S
  atom 3.9168882800000002 6.1551996999999998 47.0971621899999988 Ti
  atom 5.6169343600000001 7.1326482999999996 45.7269188799999995 S
  atom 7.4846736299999996 8.1164563500000000 48.4078829999999982 S
  atom 3.9300418900000000 0.3421224500000000 47.1256247299999984 Ti
  atom 5.5767525600000001 1.4234263400000000 45.6099908099999993 S
  atom 7.2637859000000002 2.1524457600000000 48.4721463400000019 S
  atom 5.6294024100000000 3.3281071500000001 46.9988081199999996 Ti
  atom 7.3006733600000002 4.2192437700000003 45.6057949699999980 S
  atom 9.1956236400000009 5.2598753599999997 48.4420065899999983 S
  atom 7.3524329599999998 6.1912763899999996 47.2247079099999993 Ti
  atom 9.1217323199999996 7.3765837599999999 45.6681935200000026 S
  atom 10.8721846000000006 8.0830206100000002 48.3522782000000007 S
  atom 7.2808286300000002 0.2929972300000000 47.0688754199999977 Ti
  atom 9.0227653199999995 1.4294178000000000 45.7119110000000006 S
  atom 10.8028254599999993 2.3875999800000001 48.5760022999999990 S
  atom 9.1119714999999992 3.3407077599999999 47.1092338500000025 Ti
  atom 10.5823073200000000 4.1361542399999998 45.6690238199999996 S
  atom 12.2814755000000009 5.1841852199999998 48.4332920499999986 S
  atom 10.7032396399999996 6.2116467100000001 47.0762865499999990 Ti
  atom 12.3348104000000003 7.0593085100000001 45.7283241700000005 S
  atom 13.9008719299999992 8.1596841100000006 48.3702245699999978 S
  atom 2.9053613800000000 0.4774685500000000 52.9348873799999993 Ti
  atom 4.6568323800000000 1.4289943899999999 51.4009848199999979 S
  atom 6.4640810300000000 2.4060556900000001 54.2651292299999994 S
  atom 4.6608331099999996 3.3874158400000001 52.8961984399999992 Ti
  atom 6.3938334699999997 4.4925166399999998 51.5386308100000008 S
  atom 8.1258259499999994 5.2495802899999999 54.3394490200000035 S
  atom 6.4121829500000000 6.5168300800000001 53.0816586700000030 Ti
  atom 8.1089287999999993 7.3353417900000002 51.5330082799999971 S
  atom 9.8700988899999995 8.4737970399999991 54.2247318800000002 S
  atom 6.4004136000000003 0.4494518800000000 52.7721841700000027 Ti
  atom 7.9098132200000002 1.4329277000000000 51.5299361300000029 S
  atom 9.7956396199999993 2.2469237600000000 54.3492677200000003 S
  atom 8.0753125699999995 3.4192257800000001 52.9325155699999996 Ti
  atom 9.7482634099999999 4.3587581200000001 51.5154506100000020 S
  atom 11.3872057000000009 5.2604748299999997 54.3495884900000021 S
  atom 9.8524879199999997 6.3581217499999996 52.9230465999999993 Ti
  atom 11.4333545399999998 7.2897170800000000 51.5028488600000003 S
  atom 13.2150587300000009 8.2276452899999999 54.3721783499999987 S
  atom 9.7151189599999999 0.3931385800000000 52.8460474199999979 Ti
  atom 1.3665157000000001 1.4093779399999999 51.4606213400000030 S
  atom 2.9889916599999999 2.5959569299999998 54.2689830999999998 S
  atom 11.4755629599999995 3.3725725999999998 52.9680110400000004 Ti
  atom 2.8292878899999998 4.4673197900000003 51.5041753900000003 S
  atom 4.7231801600000001 5.4989005899999999 54.2912609600000025 S
  atom 13.1415508800000005 6.2850864499999997 53.0488026100000027 Ti
  atom 4.6811000800000002 7.2884175600000001 51.5005358100000024 S
  atom 6.3349525699999996 8.2245173099999995 54.3404227400000011 S
  
  -----------------------------------------------------------------------
  Completed first pass over input file geometry.in .
  -----------------------------------------------------------------------
  

  Basic array size parameters:
  | Number of species                 :        2
  | Number of atoms                   :       54
  | Number of lattice vectors         :        3
  | Max. basis fn. angular momentum   :        3
  | Max. atomic/ionic basis occupied n:        4
  | Max. number of basis fn. types    :        3
  | Max. radial fns per species/type  :        7
  | Max. logarithmic grid size        :     1383
  | Max. radial integration grid size :       48
  | Max. angular integration grid size:      302
  | Max. angular grid division number :        8
  | Radial grid for Hartree potential :     1383
  | Number of spin channels           :        1

------------------------------------------------------------
          Reading file control.in.
------------------------------------------------------------
  XC: Using PBE gradient-corrected functionals.
  Scalar relativistic treatment of kinetic energy: on-site free-atom approximation to ZORA.
  Found k-point grid:         8         8         1
  Spin treatment: No spin polarisation.
  Charge =   0.000000E+00: Neutral system requested explicitly.
  Using dipole correction.
  Threshold value for wave function integration:  0.1000E-05
 
  Reading configuration options for species Ti                  .
  | Found nuclear charge :  22.0000
  | Found atomic mass :    47.8670000000000      amu
  | Found l_max for Hartree potential  :   4
  | Found cutoff potl. onset [A], width [A], scale factor :    3.50000    1.50000    1.00000
  | Threshold for basis-dependent cutoff potential is   0.100000E-03
  | Found data for basic radial integration grid :    48 points, outermost radius =    5.000 A
  | Found multiplier for basic radial grid :   1
  | Found angular grid specification: user-specified.
  | Specified grid contains     5 separate shells.
  | Check grid settings after all constraints further below.
  | Found free-atom valence shell :  4 s   2.000
  | Found free-atom valence shell :  3 p   6.000
  | Found free-atom valence shell :  3 d   2.000
  | Found free-ion valence shell :  4 s   1.000
  | Found free-ion valence shell :  3 p   6.000
  | Found free-ion valence shell :  3 d   1.000
  | Found hydrogenic basis function :  4 f   8.000
  | Found hydrogenic basis function :  3 d   2.700
  | Found ionic basis function :  4 p , default cutoff radius.
  | Found ionic basis function :  4 s , default cutoff radius.
 | Encountered keyword species, ending the description of species Ti                  .
  Species Ti                  : Missing cutoff potential type.
  Defaulting to exp(1/x)/(1-x)^2 type cutoff potential.
  Species Ti: No 'logarithmic' tag. Using default grid for free atom:
  | Default logarithmic grid data [bohr] : 0.1000E-03 0.1000E+03 0.1012E+01
  | Will include ionic basis functions of  2.0-fold positive Ti                   ion.
  Species Ti: On-site basis accuracy parameter (for Gram-Schmidt orthonormalisation) not specified.
  Using default value basis_acc =  0.1000000E-03.
  Species Ti                  : Using default innermost maximum threshold i_radial=  2 for radial functions.
  Species Ti                  : Default cutoff onset for free atom density etc. : 0.35000000E+01 AA.
  Species Ti                  : Basic radial grid will be enhanced according to radial_multiplier =   1, to contain    48 grid points.
 
  Reading configuration options for species S                   .
  | Found nuclear charge :  16.0000
  | Found atomic mass :    32.0650000000000      amu
  | Found l_max for Hartree potential  :   4
  | Found cutoff potl. onset [A], width [A], scale factor :    3.50000    1.50000    1.00000
  | Threshold for basis-dependent cutoff potential is   0.100000E-03
  | Found data for basic radial integration grid :    44 points, outermost radius =    5.000 A
  | Found multiplier for basic radial grid :   1
  | Found angular grid specification: user-specified.
  | Specified grid contains     4 separate shells.
  | Check grid settings after all constraints further below.
  | Found free-atom valence shell :  3 s   2.000
  | Found free-atom valence shell :  3 p   4.000
  | Found free-ion valence shell :  3 s   1.000
  | Found free-ion valence shell :  3 p   3.000
  | Found ionic basis function :  3 d , default cutoff radius.
  | Found hydrogenic basis function :  2 p   1.800
  | Found hydrogenic basis function :  4 f   7.000
  | Found ionic basis function :  3 s , default cutoff radius.
  Species S                   : Missing cutoff potential type.
  Defaulting to exp(1/x)/(1-x)^2 type cutoff potential.
  Species S : No 'logarithmic' tag. Using default grid for free atom:
  | Default logarithmic grid data [bohr] : 0.1000E-03 0.1000E+03 0.1012E+01
  | Will include ionic basis functions of  2.0-fold positive S                    ion.
  Species S : On-site basis accuracy parameter (for Gram-Schmidt orthonormalisation) not specified.
  Using default value basis_acc =  0.1000000E-03.
  Species S                   : Using default innermost maximum threshold i_radial=  2 for radial functions.
  Species S                   : Default cutoff onset for free atom density etc. : 0.35000000E+01 AA.
  Species S                   : Basic radial grid will be enhanced according to radial_multiplier =   1, to contain    44 grid points.
 
  Finished reading input file 'control.in'.
 
------------------------------------------------------------


------------------------------------------------------------
          Reading geometry description geometry.in.
------------------------------------------------------------
  | The smallest distance between any two atoms is         2.12288652 AA.
  | The first atom of this pair is atom number                     34 .
  | The second atom of this pair is atom number                    54 .
  | Wigner-Seitz cell of the first atom image           0     0     0 .
  | (The Wigner-Seitz cell of the second atom is 0 0 0  by definition.)

  Symmetry information by spglib:
  | Precision set to  0.1E-04
  | Number of Operations  : 1
  | Space group           : 1
  | International         : P1
  | Schoenflies           : C1^1
  Input structure read successfully.
  The structure contains       54 atoms,  and a total of        972.000 electrons.

  Input geometry:
  | Unit cell:
  |       10.22368445        0.00000000        0.00000000
  |        5.11184222        8.85397045        0.00000000
  |        0.00000000        0.00000000      100.00000000
  | Atomic structure:
  |       Atom                x [A]            y [A]            z [A]
  |    1: Species Ti            0.49978934        0.34859702       47.19639848
  |    2: Species S             2.15635642        1.30850928       45.74722848
  |    3: Species S             3.88130700        2.29501515       48.42884660
  |    4: Species Ti            2.26143695        3.14664635       47.19256574
  |    5: Species S             3.93296851        4.21327034       45.70503309
  |    6: Species S             5.58259003        5.23742998       48.56468319
  |    7: Species Ti            3.91688828        6.15519970       47.09716219
  |    8: Species S             5.61693436        7.13264830       45.72691888
  |    9: Species S             7.48467363        8.11645635       48.40788300
  |   10: Species Ti            3.93004189        0.34212245       47.12562473
  |   11: Species S             5.57675256        1.42342634       45.60999081
  |   12: Species S             7.26378590        2.15244576       48.47214634
  |   13: Species Ti            5.62940241        3.32810715       46.99880812
  |   14: Species S             7.30067336        4.21924377       45.60579497
  |   15: Species S             9.19562364        5.25987536       48.44200659
  |   16: Species Ti            7.35243296        6.19127639       47.22470791
  |   17: Species S             9.12173232        7.37658376       45.66819352
  |   18: Species S            10.87218460        8.08302061       48.35227820
  |   19: Species Ti            7.28082863        0.29299723       47.06887542
  |   20: Species S             9.02276532        1.42941780       45.71191100
  |   21: Species S            10.80282546        2.38759998       48.57600230
  |   22: Species Ti            9.11197150        3.34070776       47.10923385
  |   23: Species S            10.58230732        4.13615424       45.66902382
  |   24: Species S            12.28147550        5.18418522       48.43329205
  |   25: Species Ti           10.70323964        6.21164671       47.07628655
  |   26: Species S            12.33481040        7.05930851       45.72832417
  |   27: Species S            13.90087193        8.15968411       48.37022457
  |   28: Species Ti            2.90536138        0.47746855       52.93488738
  |   29: Species S             4.65683238        1.42899439       51.40098482
  |   30: Species S             6.46408103        2.40605569       54.26512923
  |   31: Species Ti            4.66083311        3.38741584       52.89619844
  |   32: Species S             6.39383347        4.49251664       51.53863081
  |   33: Species S             8.12582595        5.24958029       54.33944902
  |   34: Species Ti            6.41218295        6.51683008       53.08165867
  |   35: Species S             8.10892880        7.33534179       51.53300828
  |   36: Species S             9.87009889        8.47379704       54.22473188
  |   37: Species Ti            6.40041360        0.44945188       52.77218417
  |   38: Species S             7.90981322        1.43292770       51.52993613
  |   39: Species S             9.79563962        2.24692376       54.34926772
  |   40: Species Ti            8.07531257        3.41922578       52.93251557
  |   41: Species S             9.74826341        4.35875812       51.51545061
  |   42: Species S            11.38720570        5.26047483       54.34958849
  |   43: Species Ti            9.85248792        6.35812175       52.92304660
  |   44: Species S            11.43335454        7.28971708       51.50284886
  |   45: Species S            13.21505873        8.22764529       54.37217835
  |   46: Species Ti            9.71511896        0.39313858       52.84604742
  |   47: Species S             1.36651570        1.40937794       51.46062134
  |   48: Species S             2.98899166        2.59595693       54.26898310
  |   49: Species Ti           11.47556296        3.37257260       52.96801104
  |   50: Species S             2.82928789        4.46731979       51.50417539
  |   51: Species S             4.72318016        5.49890059       54.29126096
  |   52: Species Ti           13.14155088        6.28508645       53.04880261
  |   53: Species S             4.68110008        7.28841756       51.50053581
  |   54: Species S             6.33495257        8.22451731       54.34042274

  Lattice parameters for 3D lattice (in Angstroms) :    10.223684   10.223684  100.000000
  Angle(s) between unit vectors (in degrees)       :    90.000000   90.000000   60.000000


  Quantities derived from the lattice vectors (in Angstrom^-1):
  | Reciprocal lattice vector 1:  0.614572 -0.354823  0.000000
  | Reciprocal lattice vector 2: -0.000000  0.709646  0.000000
  | Reciprocal lattice vector 3:  0.000000  0.000000  0.062832
  | Unit cell volume                               :   0.905202E+04  Angstrom^3

  Fractional coordinates:
                         L1                L2                L3
       atom_frac         0.02919953        0.03937183        0.47196398  Ti
       atom_frac         0.13702381        0.14778785        0.45747228  S
       atom_frac         0.25003504        0.25920746        0.48428847  S
       atom_frac         0.04349898        0.35539382        0.47192566  Ti
       atom_frac         0.14676076        0.47586225        0.45705033  S
       atom_frac         0.25027752        0.59153461        0.48564683  S
       atom_frac         0.03552360        0.69519090        0.47097162  Ti
       atom_frac         0.14661035        0.80558754        0.45726919  S
       atom_frac         0.27374039        0.91670244        0.48407883  S
       atom_frac         0.36508535        0.03864057        0.47125625  Ti
       atom_frac         0.46509035        0.16076701        0.45609991  S
       atom_frac         0.58893355        0.24310514        0.48472146  S
       atom_frac         0.36267931        0.37588867        0.46998808  Ti
       atom_frac         0.47582570        0.47653692        0.45605795  S
       atom_frac         0.60240838        0.59406968        0.48442007  S
       atom_frac         0.36952411        0.69926554        0.47224708  Ti
       atom_frac         0.47564650        0.83313851        0.45668194  S
       atom_frac         0.60696811        0.91292609        0.48352278  S
       atom_frac         0.69560701        0.03309219        0.47068875  Ti
       atom_frac         0.80181373        0.16144371        0.45711911  S
       atom_frac         0.92181483        0.26966433        0.48576002  S
       atom_frac         0.70260511        0.37731183        0.47109234  Ti
       atom_frac         0.80150142        0.46715248        0.45669024  S
       atom_frac         0.90851638        0.58552095        0.48433292  S
       atom_frac         0.69612318        0.70156623        0.47076287  Ti
       atom_frac         0.80784151        0.79730428        0.45728324  S
       atom_frac         0.89888104        0.92158475        0.48370225  S
       atom_frac         0.25721596        0.05392705        0.52934887  Ti
       atom_frac         0.37479659        0.16139588        0.51400985  S
       atom_frac         0.49639092        0.27174878        0.54265129  S
       atom_frac         0.26459225        0.38258721        0.52896198  Ti
       atom_frac         0.37169357        0.50740136        0.51538631  S
       atom_frac         0.49835061        0.59290691        0.54339449  S
       atom_frac         0.25917167        0.73603477        0.53081659  Ti
       atom_frac         0.37891107        0.82848049        0.51533008  S
       atom_frac         0.48688415        0.95706182        0.54224732  S
       atom_frac         0.60065649        0.05076275        0.52772184  Ti
       atom_frac         0.69275534        0.16184013        0.51529936  S
       atom_frac         0.83124412        0.25377584        0.54349268  S
       atom_frac         0.59677327        0.38617994        0.52932516  Ti
       atom_frac         0.70735098        0.49229418        0.51515451  S
       atom_frac         0.81673776        0.59413738        0.54349588  S
       atom_frac         0.60463766        0.71810966        0.52923047  Ti
       atom_frac         0.70665663        0.82332747        0.51502849  S
       atom_frac         0.82796232        0.92926053        0.54372178  S
       atom_frac         0.92805489        0.04440252        0.52846047  Ti
       atom_frac         0.05407160        0.15918033        0.51460621  S
       atom_frac         0.14576107        0.29319693        0.54268983  S
       atom_frac         0.93199348        0.38091076        0.52968011  Ti
       atom_frac         0.02446081        0.50455553        0.51504175  S
       atom_frac         0.15145112        0.62106607        0.54291261  S
       atom_frac         0.93047224        0.70986079        0.53048803  Ti
       atom_frac         0.04627786        0.82318070        0.51500536  S
       atom_frac         0.15518136        0.92890725        0.54340423  S

  Slab Identifier: This is Z-oriented slab and maximum thickness of the vacuum is: 91.234 Angstrom.
 
  Finished reading input file 'geometry.in'.
 

 
  Consistency checks for stacksize environment parameter are next.
 
  | Maximum stacksize for task 0: unlimited
  | Maximum stacksize for task 1: unlimited
  | Maximum stacksize for task 2: unlimited
  | Maximum stacksize for task 3: unlimited
  | Maximum stacksize for task 4: unlimited
  | Maximum stacksize for task 5: unlimited
  | Maximum stacksize for task 6: unlimited
  | Maximum stacksize for task 7: unlimited
  | Maximum stacksize for task 8: unlimited
  | Maximum stacksize for task 9: unlimited
  | Maximum stacksize for task 10: unlimited
  | Maximum stacksize for task 11: unlimited
  | Maximum stacksize for task 12: unlimited
  | Maximum stacksize for task 13: unlimited
  | Maximum stacksize for task 14: unlimited
  | Maximum stacksize for task 15: unlimited
  | Maximum stacksize for task 16: unlimited
  | Maximum stacksize for task 17: unlimited
  | Maximum stacksize for task 18: unlimited
  | Maximum stacksize for task 19: unlimited
  | Maximum stacksize for task 20: unlimited
  | Maximum stacksize for task 21: unlimited
  | Maximum stacksize for task 22: unlimited
  | Maximum stacksize for task 23: unlimited
  | Maximum stacksize for task 24: unlimited
  | Maximum stacksize for task 25: unlimited
  | Maximum stacksize for task 26: unlimited
  | Maximum stacksize for task 27: unlimited
  | Maximum stacksize for task 28: unlimited
  | Maximum stacksize for task 29: unlimited
  | Maximum stacksize for task 30: unlimited
  | Maximum stacksize for task 31: unlimited
  | Maximum stacksize for task 32: unlimited
  | Maximum stacksize for task 33: unlimited
  | Maximum stacksize for task 34: unlimited
  | Maximum stacksize for task 35: unlimited
  | Maximum stacksize for task 36: unlimited
  | Maximum stacksize for task 37: unlimited
  | Maximum stacksize for task 38: unlimited
  | Maximum stacksize for task 39: unlimited
  | Maximum stacksize for task 40: unlimited
  | Maximum stacksize for task 41: unlimited
  | Maximum stacksize for task 42: unlimited
  | Maximum stacksize for task 43: unlimited
  | Maximum stacksize for task 44: unlimited
  | Maximum stacksize for task 45: unlimited
  | Maximum stacksize for task 46: unlimited
  | Maximum stacksize for task 47: unlimited
  | Maximum stacksize for task 48: unlimited
  | Maximum stacksize for task 49: unlimited
  | Maximum stacksize for task 50: unlimited
  | Maximum stacksize for task 51: unlimited
  | Maximum stacksize for task 52: unlimited
  | Maximum stacksize for task 53: unlimited
  | Maximum stacksize for task 54: unlimited
  | Maximum stacksize for task 55: unlimited
  | Maximum stacksize for task 56: unlimited
  | Maximum stacksize for task 57: unlimited
  | Maximum stacksize for task 58: unlimited
  | Maximum stacksize for task 59: unlimited
  | Maximum stacksize for task 60: unlimited
  | Maximum stacksize for task 61: unlimited
  | Maximum stacksize for task 62: unlimited
  | Maximum stacksize for task 63: unlimited
  | Maximum stacksize for task 64: unlimited
  | Maximum stacksize for task 65: unlimited
  | Maximum stacksize for task 66: unlimited
  | Maximum stacksize for task 67: unlimited
  | Maximum stacksize for task 68: unlimited
  | Maximum stacksize for task 69: unlimited
  | Maximum stacksize for task 70: unlimited
  | Maximum stacksize for task 71: unlimited
  | Maximum stacksize for task 72: unlimited
  | Maximum stacksize for task 73: unlimited
  | Maximum stacksize for task 74: unlimited
  | Maximum stacksize for task 75: unlimited
  | Maximum stacksize for task 76: unlimited
  | Maximum stacksize for task 77: unlimited
  | Maximum stacksize for task 78: unlimited
  | Maximum stacksize for task 79: unlimited
  | Maximum stacksize for task 80: unlimited
  | Maximum stacksize for task 81: unlimited
  | Maximum stacksize for task 82: unlimited
  | Maximum stacksize for task 83: unlimited
  | Maximum stacksize for task 84: unlimited
  | Maximum stacksize for task 85: unlimited
  | Maximum stacksize for task 86: unlimited
  | Maximum stacksize for task 87: unlimited
  | Maximum stacksize for task 88: unlimited
  | Maximum stacksize for task 89: unlimited
  | Maximum stacksize for task 90: unlimited
  | Maximum stacksize for task 91: unlimited
  | Maximum stacksize for task 92: unlimited
  | Maximum stacksize for task 93: unlimited
  | Maximum stacksize for task 94: unlimited
  | Maximum stacksize for task 95: unlimited
  | Maximum stacksize for task 96: unlimited
  | Maximum stacksize for task 97: unlimited
  | Maximum stacksize for task 98: unlimited
  | Maximum stacksize for task 99: unlimited
  | Maximum stacksize for task 100: unlimited
  | Maximum stacksize for task 101: unlimited
  | Maximum stacksize for task 102: unlimited
  | Maximum stacksize for task 103: unlimited
  | Maximum stacksize for task 104: unlimited
  | Maximum stacksize for task 105: unlimited
  | Maximum stacksize for task 106: unlimited
  | Maximum stacksize for task 107: unlimited
  | Maximum stacksize for task 108: unlimited
  | Maximum stacksize for task 109: unlimited
  | Maximum stacksize for task 110: unlimited
  | Maximum stacksize for task 111: unlimited
  | Maximum stacksize for task 112: unlimited
  | Maximum stacksize for task 113: unlimited
  | Maximum stacksize for task 114: unlimited
  | Maximum stacksize for task 115: unlimited
  | Maximum stacksize for task 116: unlimited
  | Maximum stacksize for task 117: unlimited
  | Maximum stacksize for task 118: unlimited
  | Maximum stacksize for task 119: unlimited
  | Maximum stacksize for task 120: unlimited
  | Maximum stacksize for task 121: unlimited
  | Maximum stacksize for task 122: unlimited
  | Maximum stacksize for task 123: unlimited
  | Maximum stacksize for task 124: unlimited
  | Maximum stacksize for task 125: unlimited
  | Maximum stacksize for task 126: unlimited
  | Maximum stacksize for task 127: unlimited
  | Maximum stacksize for task 128: unlimited
  | Maximum stacksize for task 129: unlimited
  | Maximum stacksize for task 130: unlimited
  | Maximum stacksize for task 131: unlimited
  | Maximum stacksize for task 132: unlimited
  | Maximum stacksize for task 133: unlimited
  | Maximum stacksize for task 134: unlimited
  | Maximum stacksize for task 135: unlimited
  | Maximum stacksize for task 136: unlimited
  | Maximum stacksize for task 137: unlimited
  | Maximum stacksize for task 138: unlimited
  | Maximum stacksize for task 139: unlimited
  | Maximum stacksize for task 140: unlimited
  | Maximum stacksize for task 141: unlimited
  | Maximum stacksize for task 142: unlimited
  | Maximum stacksize for task 143: unlimited
  | Maximum stacksize for task 144: unlimited
  | Maximum stacksize for task 145: unlimited
  | Maximum stacksize for task 146: unlimited
  | Maximum stacksize for task 147: unlimited
  | Maximum stacksize for task 148: unlimited
  | Maximum stacksize for task 149: unlimited
  | Maximum stacksize for task 150: unlimited
  | Maximum stacksize for task 151: unlimited
  | Maximum stacksize for task 152: unlimited
  | Maximum stacksize for task 153: unlimited
  | Maximum stacksize for task 154: unlimited
  | Maximum stacksize for task 155: unlimited
  | Maximum stacksize for task 156: unlimited
  | Maximum stacksize for task 157: unlimited
  | Maximum stacksize for task 158: unlimited
  | Maximum stacksize for task 159: unlimited
  | Current stacksize for task 0: unlimited
  | Current stacksize for task 1: unlimited
  | Current stacksize for task 2: unlimited
  | Current stacksize for task 3: unlimited
  | Current stacksize for task 4: unlimited
  | Current stacksize for task 5: unlimited
  | Current stacksize for task 6: unlimited
  | Current stacksize for task 7: unlimited
  | Current stacksize for task 8: unlimited
  | Current stacksize for task 9: unlimited
  | Current stacksize for task 10: unlimited
  | Current stacksize for task 11: unlimited
  | Current stacksize for task 12: unlimited
  | Current stacksize for task 13: unlimited
  | Current stacksize for task 14: unlimited
  | Current stacksize for task 15: unlimited
  | Current stacksize for task 16: unlimited
  | Current stacksize for task 17: unlimited
  | Current stacksize for task 18: unlimited
  | Current stacksize for task 19: unlimited
  | Current stacksize for task 20: unlimited
  | Current stacksize for task 21: unlimited
  | Current stacksize for task 22: unlimited
  | Current stacksize for task 23: unlimited
  | Current stacksize for task 24: unlimited
  | Current stacksize for task 25: unlimited
  | Current stacksize for task 26: unlimited
  | Current stacksize for task 27: unlimited
  | Current stacksize for task 28: unlimited
  | Current stacksize for task 29: unlimited
  | Current stacksize for task 30: unlimited
  | Current stacksize for task 31: unlimited
  | Current stacksize for task 32: unlimited
  | Current stacksize for task 33: unlimited
  | Current stacksize for task 34: unlimited
  | Current stacksize for task 35: unlimited
  | Current stacksize for task 36: unlimited
  | Current stacksize for task 37: unlimited
  | Current stacksize for task 38: unlimited
  | Current stacksize for task 39: unlimited
  | Current stacksize for task 40: unlimited
  | Current stacksize for task 41: unlimited
  | Current stacksize for task 42: unlimited
  | Current stacksize for task 43: unlimited
  | Current stacksize for task 44: unlimited
  | Current stacksize for task 45: unlimited
  | Current stacksize for task 46: unlimited
  | Current stacksize for task 47: unlimited
  | Current stacksize for task 48: unlimited
  | Current stacksize for task 49: unlimited
  | Current stacksize for task 50: unlimited
  | Current stacksize for task 51: unlimited
  | Current stacksize for task 52: unlimited
  | Current stacksize for task 53: unlimited
  | Current stacksize for task 54: unlimited
  | Current stacksize for task 55: unlimited
  | Current stacksize for task 56: unlimited
  | Current stacksize for task 57: unlimited
  | Current stacksize for task 58: unlimited
  | Current stacksize for task 59: unlimited
  | Current stacksize for task 60: unlimited
  | Current stacksize for task 61: unlimited
  | Current stacksize for task 62: unlimited
  | Current stacksize for task 63: unlimited
  | Current stacksize for task 64: unlimited
  | Current stacksize for task 65: unlimited
  | Current stacksize for task 66: unlimited
  | Current stacksize for task 67: unlimited
  | Current stacksize for task 68: unlimited
  | Current stacksize for task 69: unlimited
  | Current stacksize for task 70: unlimited
  | Current stacksize for task 71: unlimited
  | Current stacksize for task 72: unlimited
  | Current stacksize for task 73: unlimited
  | Current stacksize for task 74: unlimited
  | Current stacksize for task 75: unlimited
  | Current stacksize for task 76: unlimited
  | Current stacksize for task 77: unlimited
  | Current stacksize for task 78: unlimited
  | Current stacksize for task 79: unlimited
  | Current stacksize for task 80: unlimited
  | Current stacksize for task 81: unlimited
  | Current stacksize for task 82: unlimited
  | Current stacksize for task 83: unlimited
  | Current stacksize for task 84: unlimited
  | Current stacksize for task 85: unlimited
  | Current stacksize for task 86: unlimited
  | Current stacksize for task 87: unlimited
  | Current stacksize for task 88: unlimited
  | Current stacksize for task 89: unlimited
  | Current stacksize for task 90: unlimited
  | Current stacksize for task 91: unlimited
  | Current stacksize for task 92: unlimited
  | Current stacksize for task 93: unlimited
  | Current stacksize for task 94: unlimited
  | Current stacksize for task 95: unlimited
  | Current stacksize for task 96: unlimited
  | Current stacksize for task 97: unlimited
  | Current stacksize for task 98: unlimited
  | Current stacksize for task 99: unlimited
  | Current stacksize for task 100: unlimited
  | Current stacksize for task 101: unlimited
  | Current stacksize for task 102: unlimited
  | Current stacksize for task 103: unlimited
  | Current stacksize for task 104: unlimited
  | Current stacksize for task 105: unlimited
  | Current stacksize for task 106: unlimited
  | Current stacksize for task 107: unlimited
  | Current stacksize for task 108: unlimited
  | Current stacksize for task 109: unlimited
  | Current stacksize for task 110: unlimited
  | Current stacksize for task 111: unlimited
  | Current stacksize for task 112: unlimited
  | Current stacksize for task 113: unlimited
  | Current stacksize for task 114: unlimited
  | Current stacksize for task 115: unlimited
  | Current stacksize for task 116: unlimited
  | Current stacksize for task 117: unlimited
  | Current stacksize for task 118: unlimited
  | Current stacksize for task 119: unlimited
  | Current stacksize for task 120: unlimited
  | Current stacksize for task 121: unlimited
  | Current stacksize for task 122: unlimited
  | Current stacksize for task 123: unlimited
  | Current stacksize for task 124: unlimited
  | Current stacksize for task 125: unlimited
  | Current stacksize for task 126: unlimited
  | Current stacksize for task 127: unlimited
  | Current stacksize for task 128: unlimited
  | Current stacksize for task 129: unlimited
  | Current stacksize for task 130: unlimited
  | Current stacksize for task 131: unlimited
  | Current stacksize for task 132: unlimited
  | Current stacksize for task 133: unlimited
  | Current stacksize for task 134: unlimited
  | Current stacksize for task 135: unlimited
  | Current stacksize for task 136: unlimited
  | Current stacksize for task 137: unlimited
  | Current stacksize for task 138: unlimited
  | Current stacksize for task 139: unlimited
  | Current stacksize for task 140: unlimited
  | Current stacksize for task 141: unlimited
  | Current stacksize for task 142: unlimited
  | Current stacksize for task 143: unlimited
  | Current stacksize for task 144: unlimited
  | Current stacksize for task 145: unlimited
  | Current stacksize for task 146: unlimited
  | Current stacksize for task 147: unlimited
  | Current stacksize for task 148: unlimited
  | Current stacksize for task 149: unlimited
  | Current stacksize for task 150: unlimited
  | Current stacksize for task 151: unlimited
  | Current stacksize for task 152: unlimited
  | Current stacksize for task 153: unlimited
  | Current stacksize for task 154: unlimited
  | Current stacksize for task 155: unlimited
  | Current stacksize for task 156: unlimited
  | Current stacksize for task 157: unlimited
  | Current stacksize for task 158: unlimited
  | Current stacksize for task 159: unlimited
 
  Consistency checks for the contents of control.in are next.
 
  MPI_IN_PLACE appears to work with this MPI implementation.
  | Keeping use_mpi_in_place .true. (see manual).
  Explicit treatment of the Coulomb operator is needed, but the RI method is not specified.
  Coulomb operator: Defaulting to 'LVL fast' resolution of identity - RI_type = LVL_fast
  Species Ti: Using default value for prodbas_acc =   1.000000E-04.
  Species Ti: Using default value max_l_prodbas =     6.
  Species S: Using default value for prodbas_acc =   1.000000E-04.
  Species S: Using default value max_l_prodbas =     6.
  Target number of points in a grid batch is not set. Defaulting to  100
  Method for grid partitioning is not set. Defaulting to parallel hash+maxmin partitioning.
  Batch size limit is not set. Defaulting to    200
  By default, will store active basis functions for each batch.
  If in need of memory, prune_basis_once .false. can be used to disable this option.
  communication_type for Hartree potential was not specified.
  Defaulting to calc_hartree .
  Defaulting to Pulay charge density mixer.
  Pulay mixer: Number of relevant iterations not set.
  Defaulting to    8 iterations.
  Pulay mixer: Number of initial linear mixing iterations not set.
  Defaulting to    0 iterations.
  Work space size for distributed Hartree potential not set.
  Defaulting to   0.200000E+03 MB.
  Mixing parameter for charge density mixing has not been set.
  Using default: charge_mix_param =     0.0500.
  The mixing parameter will be adjusted in iteration number     2 of the first full s.c.f. cycle only.
  Algorithm-dependent basis array size parameters:
  | n_max_pulay                         :        8
  Maximum number of self-consistency iterations not provided.
  Presetting  1000 iterations.
  Presetting      1001 iterations before the initial mixing cycle
  is restarted anyway using the sc_init_iter criterion / keyword.
  Presetting a factor      1.000 between actual scf density residual
  and density convergence criterion sc_accuracy_rho below which sc_init_iter
  takes no effect.
 * No s.c.f. convergence criteria (sc_accuracy_*) were provided in control.in.
 * The run will proceed with a reasonable default guess, but please check whether.
 * the s.c.f. cycles seem to take too much or too little time.
  Calculation of forces was not defined in control.in. No forces will be calculated.
  Geometry relaxation not requested: no relaxation will be performed.
 * Notice: The s.c.f. convergence criterion sc_accuracy_rho was not provided.
 * We used to stop in this case, and ask the user to provide reasonable
 * scf convergence criteria. However, this led some users to employ criteria
 * that led to extremely long run times, e.g., for simple relaxation.
 * We now preset a default value for sc_accuracy_rho if it is not set.
 * You may still wish to check if this setting is too tight or too loose for your needs.
 * Based on n_atoms and forces and force-correction status, FHI-aims chose sc_accuracy_rho =  0.240000E-04 .
  No accuracy limit for integral partition fn. given. Defaulting to  0.1000E-14.
  No occupation type (smearing scheme) given. Defaulting to Gaussian broadening, width =  0.1000E-01 eV.
  The width will be adjusted in iteration number     2 of the first full s.c.f. cycle only.
  S.C.F. convergence parameters will be adjusted in iteration number     2 of the first full s.c.f. cycle only.
  No accuracy for occupation numbers given. Defaulting to  0.1000E-12.
  No threshold value for occupation numbers given. Defaulting to  0.0000E+00.
  No accuracy for fermi level given. Defaulting to  0.1000E-19.
  Maximum # of iterations to find E_F not set. Defaulting to  200.
  Preferred method for the eigenvalue solver ('KS_method') not specified in 'control.in'.
  Calling BLACS routine to test compilation state
  Since ScaLAPACK support is enabled, defaulting to ELPA (via ELSI).
  Will not use alltoall communication since running on < 1024 CPUs.
  Threshold for basis singularities not set.
  Default threshold for basis singularities:  0.1000E-04
  partition_type (choice of integration weights) for integrals was not specified.
  | Using a version of the partition function of Stratmann and coworkers ('stratmann_sparse').
  | At each grid point, the set of atoms used to build the partition table is smoothly restricted to
  | only those atoms whose free-atom density would be non-zero at that grid point.
  Partitioning for Hartree potential was not defined. Using partition_type for integrals.
  | Adjusted default value of keyword multip_moments_threshold to:       0.10000000E-11
  | This value may affect high angular momentum components of the Hartree potential in periodic systems.
  Angular momentum expansion for Kerker preconditioner not set explicitly.
  | Using default value of   0
  No explicit requirement for turning off preconditioner.
  | By default, it will be turned off when the charge convergence reaches
  | sc_accuracy_rho  =   0.240000E-04
  No special mixing parameter while Kerker preconditioner is on.
  Using default: charge_mix_param =     0.0500.
  Threshold for auxiliary basis singularities not set.
  Default threshold for auxiliary basis singularities:  0.1000E-04
  No q(lm)/r^(l+1) cutoff set for long-range Hartree potential.
  | Using default value of  0.100000E-09 .
  | Verify using the multipole_threshold keyword.
  Defaulting to new monopole extrapolation.
  Density update method: automatic selection selected.
  Using density matrix based charge density update.
  Using density matrix based charge density update.
  Using packed matrix style: index .
  Defaulting to use time-reversal symmetry for k-point grid.
  Charge integration errors on the 3D integration grid will be compensated
  by explicit normalization and distribution of residual charges.
  Use the "compensate_multipole_errors" flag to change this behaviour.
  Default to 1D ("use_logsbt") integrations for auxiliary 2-center integrals.
  Default onset of logarithmic r-grid for SBT is -38.000000000000
  Default onset of logarithmic k-grid for SBT is -25.000000000000
  Default range of logarithmic r- and k-grid for SBT is  45.000000000000
  Default number of logarithmic r- and k-grid for SBT is   4096
  Default of use_2d_corr is to use the efficient 2D distribution where possible
  Found no potential conflicts with setting 'use_local_index' for this calculation.
  Flag 'use_local_index' has not been set.
  Testing whether we classify this calculation as large-scale ...
  The calculation contains less than 100 atoms. This is most likely not a large-scale calculation.
  Not setting 'use_local_index'.
 
  Consistency checks for the contents of geometry.in are next.
 

  Range separation radius for Ewald summation (hartree_convergence_parameter):      5.00000000 bohr.
  Number of empty states per atom not set in control.in - providing a guess from actual geometry.
  | Total number of empty states used during s.c.f. cycle:      207
  If you use a very high smearing, use empty_states (per atom!) in control.in to increase this value.

  Structure-dependent array size parameters: 
  | Maximum number of distinct radial functions  :       20
  | Maximum number of basis functions            :     1458
  | Number of Kohn-Sham states (occupied + empty):      693
------------------------------------------------------------
 Error: The dipole correction needs vacuum z-level to be defined
 Vacuum level will be determined automatically.
 Determine position of vacuum level automatically
 **WARNING** : This feature is experimental and still requires some testing
 **PLEASE ** : If you see it fail, please report.
 Vacuum level determined:
 set_vacuum_level   99.98899 Bohr
  After read_input_data [GB]:     80.38

  Performing system and environment tests:
  | Environment variable OMP_NUM_THREADS correctly set to 1.
  | Checking for ScaLAPACK...
  | Testing pdtran()...
  | All pdtran() tests passed.
  After prepare_system [GB]:     80.26

------------------------------------------------------------
          Preparing all fixed parts of the calculation.
------------------------------------------------------------
  Determining machine precision:
    2.225073858507201E-308
  Setting up grids for atomic and cluster calculations.

  Creating wave function, potential, and density for free atoms.
  Runtime choices for atomic solver:
  | atomic solver xc        : PBE
  | compute density gradient: 1
  | compute kinetic density : F

  Species: Ti

  List of occupied orbitals and eigenvalues:
    n    l              occ      energy [Ha]    energy [eV]
    1    0           2.0000      -179.959082     -4896.9358
    2    0           2.0000       -19.727662      -536.8170
    3    0           2.0000        -2.283029       -62.1244
    4    0           2.0000        -0.148384        -4.0377
    2    1           6.0000       -16.317278      -444.0157
    3    1           6.0000        -1.409348       -38.3503
    3    2           2.0000        -0.139340        -3.7916


  Species: S

  List of occupied orbitals and eigenvalues:
    n    l              occ      energy [Ha]    energy [eV]
    1    0           2.0000       -88.678258     -2413.0582
    2    0           2.0000        -7.779365      -211.6873
    3    0           2.0000        -0.631865       -17.1939
    2    1           6.0000        -5.749610      -156.4549
    3    1           4.0000        -0.255301        -6.9471


  Adding cutoff potential to free-atom effective potential.
  Creating fixed part of basis set: Ionic, confined, hydrogenic.
 
  Ti                   ion:

  List of free ionic orbitals and eigenvalues:
    n    l      energy [Ha]    energy [eV]
    1    0      -180.819616     -4920.3521
    2    0       -20.608761      -560.7929
    3    0        -3.115729       -84.7833
    4    0        -0.697188       -18.9715
    2    1       -17.196209      -467.9327
    3    1        -2.231296       -60.7167
    3    2        -0.911363       -24.7995


  List of ionic basis orbitals and eigenvalues:
    n    l      energy [Ha]    energy [eV]    outer radius [A]
    4    1        -0.517739       -14.0884       4.592117
    4    0        -0.696824       -18.9615       4.536321

 
  Ti                   hydrogenic:
 
  List of hydrogenic basis orbitals: 
    n    l      effective z      eigenvalue [eV]  inner max. [A]     outer max. [A]     outer radius [A]   
    4    3         8.000000       -54.4222           1.059019           1.059019           4.267343
    3    2         2.700000       -10.7798           1.726925           1.726925           4.592117
 
 
  S                    ion:

  List of free ionic orbitals and eigenvalues:
    n    l      energy [Ha]    energy [eV]
    1    0       -89.703778     -2440.9640
    2    0        -8.775428      -238.7916
    3    0        -1.470343       -40.0101
    2    1        -6.747660      -183.6132
    3    1        -1.048627       -28.5346


  List of ionic basis orbitals and eigenvalues:
    n    l      energy [Ha]    energy [eV]    outer radius [A]
    3    2        -0.495221       -13.4756       4.539062
    3    0        -1.470325       -40.0096       3.642502

 
  S                    hydrogenic:
 
  List of hydrogenic basis orbitals: 
    n    l      effective z      eigenvalue [eV]  inner max. [A]     outer max. [A]     outer radius [A]   
    2    1         1.800000       -10.9749           1.168531           1.168531           4.594893
    4    3         7.000000       -41.6658           1.212182           1.212182           4.539062
 
  Creating atomic-like basis functions for current effective potential.

  Species Ti                  :

  List of atomic basis orbitals and eigenvalues:
    n    l      energy [Ha]    energy [eV]    outer radius [A]
    1    0      -179.959082     -4896.9358       0.490254
    2    0       -19.727662      -536.8170       1.491292
    3    0        -2.283029       -62.1244       4.014314
    4    0        -0.148384        -4.0377       4.592117
    2    1       -16.317278      -444.0157       1.585290
    3    1        -1.409348       -38.3503       4.267343
    3    2        -0.139340        -3.7916       4.536321


  Species S                   :

  List of atomic basis orbitals and eigenvalues:
    n    l      energy [Ha]    energy [eV]    outer radius [A]
    1    0       -88.678258     -2413.0582       0.682391
    2    0        -7.779365      -211.6873       2.289014
    3    0        -0.631865       -17.1939       4.483910
    2    1        -5.749610      -156.4549       2.555240
    3    1        -0.255301        -6.9471       4.539062

  Assembling full basis from fixed parts.
  | Species Ti :   atomic orbital   1 s accepted.
  | Species Ti :   atomic orbital   2 s accepted.
  | Species Ti :   atomic orbital   3 s accepted.
  | Species Ti :    ionic orbital   4 s accepted.
  | Species Ti :   atomic orbital   4 s accepted.
  | Species Ti :   atomic orbital   2 p accepted.
  | Species Ti :   atomic orbital   3 p accepted.
  | Species Ti :    ionic orbital   4 p accepted.
  | Species Ti :   atomic orbital   3 d accepted.
  | Species Ti :    hydro orbital   3 d accepted.
  | Species Ti :    hydro orbital   4 f accepted.
  | Species S :   atomic orbital   1 s accepted.
  | Species S :   atomic orbital   2 s accepted.
  | Species S :    ionic orbital   3 s accepted.
  | Species S :   atomic orbital   3 s accepted.
  | Species S :   atomic orbital   2 p accepted.
  | Species S :   atomic orbital   3 p accepted.
  | Species S :    hydro orbital   2 p accepted.
  | Species S :    ionic orbital   3 d accepted.
  | Species S :    hydro orbital   4 f accepted.
 
  Basis size parameters after reduction:
  | Total number of radial functions:       20
  | Total number of basis functions :     1458
 
  Per-task memory consumption for arrays in subroutine allocate_ext:
  |           7.116088MB.
  Testing on-site integration grid accuracy.
  |  Species  Function  <phi|h_atom|phi> (log., in eV)  <phi|h_atom|phi> (rad., in eV)
           1        1              -4896.9357674450              -4896.9322830202
           1        2               -536.8170048508               -536.8169722333
           1        3                -62.1243896260                -62.1243889283
           1        4                 -3.2653235630                 -3.2692838808
           1        5                  6.7987747276                  6.5460721883 ***
           1        6               -444.0157161949               -444.0157165810
           1        7                -38.3503235548                -38.3503234963
           1        8                  0.2923930877                  0.2745948116
           1        9                 -3.7933400649                 -3.7959244177
           1       10                  6.3288803616                  6.2510614929 ***
           1       11                 27.8451455747                 27.8452636416
           2       12              -2413.0581659109              -2413.0570554886
           2       13               -211.6872814127               -211.6872738937
           2       14                -16.9208611991                -16.9208255642
           2       15                  7.5845503345                  7.5614252779
           2       16               -156.4548540501               -156.4548540107
           2       17                 -6.9485729304                 -6.9508389945
           2       18                  7.5803076288                  7.5258504832 ***
           2       19                  6.1173006980                  6.1127563631
           2       20                 24.7512183535                 24.7503558869
 * Note: Onsite integrals marked "***" above are less accurate than
 * onsite_accuracy_threshold =    0.03000 eV. Usually, this is harmless.
 * When in doubt, tighten the "radial" and/or "radial_multiplier" flags to check.

  Preparing densities etc. for the partition functions (integrals / Hartree potential).

  Preparations completed.
  max(cpu_time)          :      0.395 s.
  Wall clock time (cpu1) :      0.858 s.
------------------------------------------------------------
  After prepare_scf [GB]:     79.45

  Initializing index lists of integration centers etc. from given atomic structure:
  Mapping all atomic coordinates to central unit cell.

  Initializing the k-points
  Using symmetry for reducing the k-points
  | k-points reduced from:       64 to       34
  | Number of k-points                             :        34
  The eigenvectors in the calculations are COMPLEX.
  | Number of basis functions in the Hamiltonian integrals :      8706
  | Number of basis functions in a single unit cell        :      1458
  | Number of centers in hartree potential         :      1740
  | Number of centers in hartree multipole         :       837
  | Number of centers in electron density summation:       690
  | Number of centers in basis integrals           :       701
  | Number of centers in integrals                 :       413
  | Number of centers in hamiltonian               :       690
  | Consuming         15 KiB for k_phase.
  | Number of super-cells (origin) [n_cells]                     :         147
  | Number of super-cells (after PM_index) [n_cells]             :          30
  | Number of super-cells in hamiltonian [n_cells_in_hamiltonian]:          30
  | Size of matrix packed + index [n_hamiltonian_matrix_size] :     2034932
  After initialize_bc_dependent_lists [GB]:     78.90

------------------------------------------------------------
          Begin self-consistency loop: Initialization.

          Date     :  20240626, Time     :  193544.254
------------------------------------------------------------
  Available memory per node after initialize_hartree_non_periodic_ewald [GB]:     78.90
  | Estimated reciprocal-space cutoff momentum G_max:         1.84432723 bohr^-1 .
  | Reciprocal lattice points for long-range Hartree potential:    6470
  Available memory per node after initialize_recip_hartree_potential [GB]:     78.90
  Using simple linear distribution as default method for k-point parallelism.
  * Using 160 tasks for Scalapack Eigenvalue solver.
  Detailed listing of tasks and assigned k-points:
   Task     0 k-point     1 on co1104
   Task     1 k-point     1 on co1104
   Task     2 k-point     1 on co1104
   Task     3 k-point     1 on co1104
   Task     4 k-point     1 on co1104
   Task     5 k-point     2 on co1104
   Task     6 k-point     2 on co1104
   Task     7 k-point     2 on co1104
   Task     8 k-point     2 on co1104
   Task     9 k-point     2 on co1104
   Task    10 k-point     3 on co1104
   Task    11 k-point     3 on co1104
   Task    12 k-point     3 on co1104
   Task    13 k-point     3 on co1104
   Task    14 k-point     3 on co1104
   Task    15 k-point     4 on co1104
   Task    16 k-point     4 on co1104
   Task    17 k-point     4 on co1104
   Task    18 k-point     4 on co1104
   Task    19 k-point     5 on co1104
   Task    20 k-point     5 on co1104
   Task    21 k-point     5 on co1104
   Task    22 k-point     5 on co1104
   Task    23 k-point     5 on co1104
   Task    24 k-point     6 on co1104
   Task    25 k-point     6 on co1104
   Task    26 k-point     6 on co1104
   Task    27 k-point     6 on co1104
   Task    28 k-point     6 on co1104
   Task    29 k-point     7 on co1104
   Task    30 k-point     7 on co1104
   Task    31 k-point     7 on co1104
   Task    32 k-point     7 on co1104
   Task    33 k-point     8 on co1104
   Task    34 k-point     8 on co1104
   Task    35 k-point     8 on co1104
   Task    36 k-point     8 on co1104
   Task    37 k-point     8 on co1104
   Task    38 k-point     9 on co1104
   Task    39 k-point     9 on co1104
   Task    40 k-point     9 on co1105
   Task    41 k-point     9 on co1105
   Task    42 k-point     9 on co1105
   Task    43 k-point    10 on co1105
   Task    44 k-point    10 on co1105
   Task    45 k-point    10 on co1105
   Task    46 k-point    10 on co1105
   Task    47 k-point    10 on co1105
   Task    48 k-point    11 on co1105
   Task    49 k-point    11 on co1105
   Task    50 k-point    11 on co1105
   Task    51 k-point    11 on co1105
   Task    52 k-point    12 on co1105
   Task    53 k-point    12 on co1105
   Task    54 k-point    12 on co1105
   Task    55 k-point    12 on co1105
   Task    56 k-point    12 on co1105
   Task    57 k-point    13 on co1105
   Task    58 k-point    13 on co1105
   Task    59 k-point    13 on co1105
   Task    60 k-point    13 on co1105
   Task    61 k-point    13 on co1105
   Task    62 k-point    14 on co1105
   Task    63 k-point    14 on co1105
   Task    64 k-point    14 on co1105
   Task    65 k-point    14 on co1105
   Task    66 k-point    15 on co1105
   Task    67 k-point    15 on co1105
   Task    68 k-point    15 on co1105
   Task    69 k-point    15 on co1105
   Task    70 k-point    15 on co1105
   Task    71 k-point    16 on co1105
   Task    72 k-point    16 on co1105
   Task    73 k-point    16 on co1105
   Task    74 k-point    16 on co1105
   Task    75 k-point    16 on co1105
   Task    76 k-point    17 on co1105
   Task    77 k-point    17 on co1105
   Task    78 k-point    17 on co1105
   Task    79 k-point    17 on co1105
   Task    80 k-point    18 on co1106
   Task    81 k-point    18 on co1106
   Task    82 k-point    18 on co1106
   Task    83 k-point    18 on co1106
   Task    84 k-point    18 on co1106
   Task    85 k-point    19 on co1106
   Task    86 k-point    19 on co1106
   Task    87 k-point    19 on co1106
   Task    88 k-point    19 on co1106
   Task    89 k-point    19 on co1106
   Task    90 k-point    20 on co1106
   Task    91 k-point    20 on co1106
   Task    92 k-point    20 on co1106
   Task    93 k-point    20 on co1106
   Task    94 k-point    20 on co1106
   Task    95 k-point    21 on co1106
   Task    96 k-point    21 on co1106
   Task    97 k-point    21 on co1106
   Task    98 k-point    21 on co1106
   Task    99 k-point    22 on co1106
   Task   100 k-point    22 on co1106
   Task   101 k-point    22 on co1106
   Task   102 k-point    22 on co1106
   Task   103 k-point    22 on co1106
   Task   104 k-point    23 on co1106
   Task   105 k-point    23 on co1106
   Task   106 k-point    23 on co1106
   Task   107 k-point    23 on co1106
   Task   108 k-point    23 on co1106
   Task   109 k-point    24 on co1106
   Task   110 k-point    24 on co1106
   Task   111 k-point    24 on co1106
   Task   112 k-point    24 on co1106
   Task   113 k-point    25 on co1106
   Task   114 k-point    25 on co1106
   Task   115 k-point    25 on co1106
   Task   116 k-point    25 on co1106
   Task   117 k-point    25 on co1106
   Task   118 k-point    26 on co1106
   Task   119 k-point    26 on co1106
   Task   120 k-point    26 on co1108
   Task   121 k-point    26 on co1108
   Task   122 k-point    26 on co1108
   Task   123 k-point    27 on co1108
   Task   124 k-point    27 on co1108
   Task   125 k-point    27 on co1108
   Task   126 k-point    27 on co1108
   Task   127 k-point    27 on co1108
   Task   128 k-point    28 on co1108
   Task   129 k-point    28 on co1108
   Task   130 k-point    28 on co1108
   Task   131 k-point    28 on co1108
   Task   132 k-point    29 on co1108
   Task   133 k-point    29 on co1108
   Task   134 k-point    29 on co1108
   Task   135 k-point    29 on co1108
   Task   136 k-point    29 on co1108
   Task   137 k-point    30 on co1108
   Task   138 k-point    30 on co1108
   Task   139 k-point    30 on co1108
   Task   140 k-point    30 on co1108
   Task   141 k-point    30 on co1108
   Task   142 k-point    31 on co1108
   Task   143 k-point    31 on co1108
   Task   144 k-point    31 on co1108
   Task   145 k-point    31 on co1108
   Task   146 k-point    32 on co1108
   Task   147 k-point    32 on co1108
   Task   148 k-point    32 on co1108
   Task   149 k-point    32 on co1108
   Task   150 k-point    32 on co1108
   Task   151 k-point    33 on co1108
   Task   152 k-point    33 on co1108
   Task   153 k-point    33 on co1108
   Task   154 k-point    33 on co1108
   Task   155 k-point    33 on co1108
   Task   156 k-point    34 on co1108
   Task   157 k-point    34 on co1108
   Task   158 k-point    34 on co1108
   Task   159 k-point    34 on co1108
  K-point:     1 Tasks:     5 split into      5 X      1 BLACS grid
  Calculating block size based on n_basis =         1458  max_nprow =            5  max_npcol =            2
  ScaLAPACK block size set to:           16
  Allocating        6.763 MB for ovlp_complex
  Allocating        6.763 MB for ham_complex
  Allocating        6.763 MB for eigenvec_complex
  Required Scalapack workspace - INTEGER:            1  REAL:             1  COMPLEX:            1
  Available memory per node after initialize_scalapack [GB]:     78.19
  Available memory per node after aims_elsi_init_scf [GB]:     78.19
  Available memory per node after initialize_fixed_grids [GB]:     78.19
  Partitioning the integration grid into batches with parallel hashing+maxmin method.
  | Number of batches:     4943
  | Maximal batch size:     200
  | Minimal batch size:      54
  | Average batch size:      87.294
  | Standard deviation of batch sizes:      26.180

  Integration load balanced across   160 MPI tasks.
  Work distribution over tasks is as follows:
  Task     0 has       2647 integration points.
  Task     1 has       2681 integration points.
  Task     2 has       2665 integration points.
  Task     3 has       2747 integration points.
  Task     4 has       2728 integration points.
  Task     5 has       2741 integration points.
  Task     6 has       2665 integration points.
  Task     7 has       2740 integration points.
  Task     8 has       2657 integration points.
  Task     9 has       2694 integration points.
  Task    10 has       2657 integration points.
  Task    11 has       2744 integration points.
  Task    12 has       2746 integration points.
  Task    13 has       2736 integration points.
  Task    14 has       2669 integration points.
  Task    15 has       2659 integration points.
  Task    16 has       2740 integration points.
  Task    17 has       2644 integration points.
  Task    18 has       2651 integration points.
  Task    19 has       2747 integration points.
  Task    20 has       2654 integration points.
  Task    21 has       2665 integration points.
  Task    22 has       2684 integration points.
  Task    23 has       2683 integration points.
  Task    24 has       2743 integration points.
  Task    25 has       2706 integration points.
  Task    26 has       2739 integration points.
  Task    27 has       2714 integration points.
  Task    28 has       2693 integration points.
  Task    29 has       2653 integration points.
  Task    30 has       2646 integration points.
  Task    31 has       2662 integration points.
  Task    32 has       2737 integration points.
  Task    33 has       2663 integration points.
  Task    34 has       2745 integration points.
  Task    35 has       2661 integration points.
  Task    36 has       2732 integration points.
  Task    37 has       2676 integration points.
  Task    38 has       2679 integration points.
  Task    39 has       2730 integration points.
  Task    40 has       2721 integration points.
  Task    41 has       2677 integration points.
  Task    42 has       2645 integration points.
  Task    43 has       2645 integration points.
  Task    44 has       2682 integration points.
  Task    45 has       2643 integration points.
  Task    46 has       2655 integration points.
  Task    47 has       2684 integration points.
  Task    48 has       2726 integration points.
  Task    49 has       2666 integration points.
[...]
  | Number of local auxiliary basis functions on task:     41    80
  | Number of local auxiliary basis functions on task:     42    80
  | Number of local auxiliary basis functions on task:     43    80
  | Number of local auxiliary basis functions on task:     44    80
  | Number of local auxiliary basis functions on task:     45    80
  | Number of local auxiliary basis functions on task:     46    80
  | Number of local auxiliary basis functions on task:     47    80
  | Number of local auxiliary basis functions on task:     48    80
  | Number of local auxiliary basis functions on task:     49    80
  | Number of local auxiliary basis functions on task:     50    80
  | Number of local auxiliary basis functions on task:     51    80
  | Number of local auxiliary basis functions on task:     52    80
  | Number of local auxiliary basis functions on task:     53    80
  | Number of local auxiliary basis functions on task:     54    80
  | Number of local auxiliary basis functions on task:     55    80
  | Number of local auxiliary basis functions on task:     56    80
  | Number of local auxiliary basis functions on task:     57    80
  | Number of local auxiliary basis functions on task:     58    80
  | Number of local auxiliary basis functions on task:     59    80
  | Number of local auxiliary basis functions on task:     60    80
  | Number of local auxiliary basis functions on task:     61    80
  | Number of local auxiliary basis functions on task:     62    80
  | Number of local auxiliary basis functions on task:     63    80
  | Number of local auxiliary basis functions on task:     64    80
  | Number of local auxiliary basis functions on task:     65    80
  | Number of local auxiliary basis functions on task:     66    80
  | Number of local auxiliary basis functions on task:     67    80
  | Number of local auxiliary basis functions on task:     68    80
  | Number of local auxiliary basis functions on task:     69    80
  | Number of local auxiliary basis functions on task:     70    80
  | Number of local auxiliary basis functions on task:     71    80
  | Number of local auxiliary basis functions on task:     72    80
  | Number of local auxiliary basis functions on task:     73    80
  | Number of local auxiliary basis functions on task:     74    80
  | Number of local auxiliary basis functions on task:     75    80
  | Number of local auxiliary basis functions on task:     76    80
  | Number of local auxiliary basis functions on task:     77    80
  | Number of local auxiliary basis functions on task:     78    80
  | Number of local auxiliary basis functions on task:     79    80
  | Number of local auxiliary basis functions on task:     80    80
  | Number of local auxiliary basis functions on task:     81    80
  | Number of local auxiliary basis functions on task:     82    80
  | Number of local auxiliary basis functions on task:     83    80
  | Number of local auxiliary basis functions on task:     84    80
  | Number of local auxiliary basis functions on task:     85    80
  | Number of local auxiliary basis functions on task:     86    80
  | Number of local auxiliary basis functions on task:     87    80
  | Number of local auxiliary basis functions on task:     88    80
  | Number of local auxiliary basis functions on task:     89    80
  | Number of local auxiliary basis functions on task:     90    80
  | Number of local auxiliary basis functions on task:     91    80
  | Number of local auxiliary basis functions on task:     92    80
  | Number of local auxiliary basis functions on task:     93    80
  | Number of local auxiliary basis functions on task:     94    80
  | Number of local auxiliary basis functions on task:     95    80
  | Number of local auxiliary basis functions on task:     96    80
  | Number of local auxiliary basis functions on task:     97    80
  | Number of local auxiliary basis functions on task:     98    80
  | Number of local auxiliary basis functions on task:     99    80
  | Number of local auxiliary basis functions on task:    100    80
  | Number of local auxiliary basis functions on task:    101    80
  | Number of local auxiliary basis functions on task:    102    80
  | Number of local auxiliary basis functions on task:    103    80
  | Number of local auxiliary basis functions on task:    104    80
  | Number of local auxiliary basis functions on task:    105    80
  | Number of local auxiliary basis functions on task:    106    80
  | Number of local auxiliary basis functions on task:    107    80
  | Number of local auxiliary basis functions on task:    108    80
  | Number of local auxiliary basis functions on task:    109    80
  | Number of local auxiliary basis functions on task:    110    80
  | Number of local auxiliary basis functions on task:    111    80
  | Number of local auxiliary basis functions on task:    112    80
  | Number of local auxiliary basis functions on task:    113    80
  | Number of local auxiliary basis functions on task:    114    80
  | Number of local auxiliary basis functions on task:    115    80
  | Number of local auxiliary basis functions on task:    116    80
  | Number of local auxiliary basis functions on task:    117    80
  | Number of local auxiliary basis functions on task:    118    80
  | Number of local auxiliary basis functions on task:    119    80
  | Number of local auxiliary basis functions on task:    120    80
  | Number of local auxiliary basis functions on task:    121    80
  | Number of local auxiliary basis functions on task:    122    80
  | Number of local auxiliary basis functions on task:    123    80
  | Number of local auxiliary basis functions on task:    124    80
  | Number of local auxiliary basis functions on task:    125    80
  | Number of local auxiliary basis functions on task:    126    80
  | Number of local auxiliary basis functions on task:    127    80
  | Number of local auxiliary basis functions on task:    128    80
  | Number of local auxiliary basis functions on task:    129    80
  | Number of local auxiliary basis functions on task:    130    80
  | Number of local auxiliary basis functions on task:    131    80
  | Number of local auxiliary basis functions on task:    132    80
  | Number of local auxiliary basis functions on task:    133    80
  | Number of local auxiliary basis functions on task:    134    80
  | Number of local auxiliary basis functions on task:    135    80
  | Number of local auxiliary basis functions on task:    136    80
  | Number of local auxiliary basis functions on task:    137    80
  | Number of local auxiliary basis functions on task:    138    80
  | Number of local auxiliary basis functions on task:    139    80
  | Number of local auxiliary basis functions on task:    140    80
  | Number of local auxiliary basis functions on task:    141    78
  | Number of local auxiliary basis functions on task:    142    64
  | Number of local auxiliary basis functions on task:    143    64
  | Number of local auxiliary basis functions on task:    144    64
  | Number of local auxiliary basis functions on task:    145    64
  | Number of local auxiliary basis functions on task:    146    64
  | Number of local auxiliary basis functions on task:    147    64
  | Number of local auxiliary basis functions on task:    148    64
  | Number of local auxiliary basis functions on task:    149    64
  | Number of local auxiliary basis functions on task:    150    64
  | Number of local auxiliary basis functions on task:    151    64
  | Number of local auxiliary basis functions on task:    152    64
  | Number of local auxiliary basis functions on task:    153    64
  | Number of local auxiliary basis functions on task:    154    64
  | Number of local auxiliary basis functions on task:    155    64
  | Number of local auxiliary basis functions on task:    156    64
  | Number of local auxiliary basis functions on task:    157    64
  | Number of local auxiliary basis functions on task:    158    64
  | Number of local auxiliary basis functions on task:    159    64
  | 2D aux task distribution:     10 X     16
  | 2D block size (nb_aux_2d):     64
  Minimal free memory per node after shrink_svd_auxil [GB]:     74.08
  Minimal free memory per node after allocate_basis_pairs [GB]:     74.08
 
  Basis pair condensation :   1063611  -->     448539

------------------------------------------------------------
  End self-consistency iteration #    46       :  max(cpu_time)    wall_clock(cpu1)
  | Time for this iteration                     :      271.848 s         272.202 s
  | Charge density update                       :        0.000 s           0.000 s
  | Density mixing                              :        0.327 s           0.327 s
  | Hartree multipole update                    :        0.004 s           0.004 s
  | Hartree multipole summation                 :        0.210 s           0.209 s
  | Integration                                 :        0.234 s           0.234 s
  | Solution of K.-S. eqns.                     :        1.195 s           1.200 s
  | Total energy evaluation                     :        0.002 s           0.003 s

  Partial memory accounting:
  | Current value for overall tracked memory usage:
  |   Minimum:       44.044 MB (on task  45)
  |   Maximum:       49.669 MB (on task  76)
  |   Average:       45.530 MB
  | Peak value for overall tracked memory usage:
  |   Minimum:       64.471 MB (on task  75 after allocating wave)
  |   Maximum:       72.102 MB (on task 111 after allocating wave)
  |   Average:       66.937 MB
  | Largest tracked array allocation so far:
  |   Minimum:       15.525 MB (overlap_matrix on task   0)
  |   Maximum:       15.525 MB (overlap_matrix on task   0)
  |   Average:       15.525 MB
  Note:  These values currently only include a subset of arrays which are explicitly tracked.
  The "true" memory usage will be greater.
------------------------------------------------------------

  Energy and forces in a compact form:
  | Total energy uncorrected      :         -0.811074087959555E+06 eV
  | Total energy corrected        :         -0.811074089168086E+06 eV  <-- do not rely on this value for anything but (periodic) metals
  | Electronic free energy        :         -0.811074090376616E+06 eV

  ------------------------------------ 
  Start decomposition of the XC Energy 
  ------------------------------------ 
  X and C from original XC functional choice 
  Hartree-Fock Energy :          0.000000000 Ha              0.000000000 eV
  X Energy            :      -1644.449297151 Ha         -44747.742115529 eV
  C Energy            :        -39.984668431 Ha          -1088.038186775 eV
  XC Energy w/o HF    :      -1684.433965582 Ha         -45835.780302305 eV
  Total XC Energy     :      -1684.433965582 Ha         -45835.780302305 eV
  ------------------------------------ 
  LDA X and C from self-consistent density 
  X Energy LDA        :      -1531.124786507 Ha         -41664.025283110 eV
  C Energy LDA        :        -77.401067819 Ha          -2106.190217141 eV
  ------------------------------------ 
  End decomposition of the XC Energy 
  ------------------------------------ 

------------------------------------------------------------

  | Chemical Potential                          :    -5.95138310 eV
  | Note that, for insulating systems, the printed 'chemical potential' value is not uniquely defined.
  | It can be anywhere in the energy gap, as long as it correctly separates occupied and unoccupied states.
  | In systems with a gap, the physically relevant chemical potential is the VBM or HOMO.

  Writing energy levels:
  | Potential vacuum level, "upper" slab surface    :    -0.22734771 eV
  | Potential vacuum level, "lower" slab surface    :     0.09059803 eV
  | Work function ("upper" slab surface)            :     5.72403539 eV
  | Work function ("lower" slab surface)            :     6.04198113 eV
  | VBM (reference: upper vacuum level)             :     5.76004927 eV
  | CBM (reference: upper vacuum level)             :     5.71269272 eV

------------------------------------------------------------------------------
  Final output of selected total energy values:

  The following output summarizes some interesting total energy values
  at the end of a run (AFTER all relaxation, molecular dynamics, etc.).

  | Total energy of the DFT / Hartree-Fock s.c.f. calculation      :        -811074.087959555 eV
  | Final zero-broadening corrected energy (caution - metals only) :        -811074.089168086 eV
  | For reference only, the value of 1 Hartree used in FHI-aims is :             27.211384500 eV
  | For reference only, the overall average (free atom contribution
  | + realspace contribution) of the electrostatic potential after
  | s.c.f. convergence is                                          :             -1.689240187 eV

  Before relying on these values, please be sure to understand exactly which
  total energy value is referred to by a given number. Different objects may
  all carry the same name 'total energy'. Definitions:

  Total energy of the DFT / Hartree-Fock s.c.f. calculation:
  | Note that this energy does not include ANY quantities calculated after the
  | s.c.f. cycle, in particular not ANY RPA, MP2, etc. many-body perturbation terms.

  Final zero-broadening corrected energy:
  | For metallic systems only, a broadening of the occupation numbers at the Fermi
  | level can be extrapolated back to zero broadening by an electron-gas inspired
  | formula. For all systems that are not real metals, this value can be
  | meaningless and should be avoided.

------------------------------------------------------------------------------
  Methods described in the following list of references were used in this FHI-aims run.
  If you publish the results, please make sure to cite these reference if they apply.
  FHI-aims is an academic code, and for our developers (often, Ph.D. students
  and postdocs), scientific credit in the community is essential.
  Thank you for helping us!

  For any use of FHI-aims, please cite:

    Volker Blum, Ralf Gehrke, Felix Hanke, Paula Havu, Ville Havu,
    Xinguo Ren, Karsten Reuter, and Matthias Scheffler
    'Ab initio molecular simulations with numeric atom-centered orbitals'
    Computer Physics Communications 180, 2175-2196 (2009)
    http://doi.org/10.1016/j.cpc.2009.06.022


  For Hartree-Fock, hybrid functionals, or many-body perturbation theory used in your run, please cite:

    Xinguo Ren, Patrick Rinke, Volker Blum, Juergen Wieferink, Alex Tkatchenko,
    Andrea Sanfilippo, Karsten Reuter, and Matthias Scheffler,
    'Resolution-of-identity approach to Hartree-Fock, hybrid density functionals,
    RPA, MP2, and GW with numeric atom-centered orbital basis functions'
    New Journal of Physics 14, 053020 (2012).
    http://doi.org/10.1088/1367-2630/14/5/053020


  The provided symmetry information was generated with SPGlib:

    Atsushi Togo, Yusuke Seto, Dimitar Pashov
    SPGlib 1.7.3 obtained from http://spglib.sourceforge.net
    Licence: New BSD license
    Copyright (C) 2008 Atsushi Togo


  The ELSI infrastructure was used in your run to solve the Kohn-Sham electronic structure.
  Please check out https://wordpress.elsi-interchange.org to learn more.
  If scalability is important for your project, please acknowledge ELSI by citing:

    V. W-z. Yu, F. Corsetti, A. Garcia, W. P. Huhn, M. Jacquelin, W. Jia,
    B. Lange, L. Lin, J. Lu, W. Mi, A. Seifitokaldani, A. Vazquez-Mayagoitia,
    C. Yang, H. Yang, and V. Blum
    'ELSI: A unified software interface for Kohn-Sham electronic structure solvers'
    Computer Physics Communications 222, 267-285 (2018).
    http://doi.org/10.1016/j.cpc.2017.09.007


  For the real-space grid partitioning and parallelization used in this calculation, please cite:

    Ville Havu, Volker Blum, Paula Havu, and Matthias Scheffler,
    'Efficient O(N) integration for all-electron electronic structure calculation'
    'using numerically tabulated basis functions'
    Journal of Computational Physics 228, 8367-8379 (2009).
    http://doi.org/10.1016/j.jcp.2009.08.008


  The high-level electronic structure method used in your calculation
  employed our efficient localized resolution of identity for the Coulomb operator.
  Some calculations, especially large-scale hybrid density functional theory,
  are only possible thanks to this development. For this feature, please cite:

    Arvid Ihrig, Juergen Wieferink, Igor Ying Zhang, Matti Ropo, Xinguo Ren,
    Patrick Rinke, Matthias Scheffler, and Volker Blum,
    'Accurate localized resolution of identity approach for linear-scaling
    hybrid density functionals and for many-body perturbation theory'
    New Journal of Physics 117, 093020 (2015).
    http://doi.org/10.1088/1367-2630/17/9/093020

  Of course, there are many other important community references, e.g., those cited in the
  above references. Our list is limited to references that describe implementations in the
  FHI-aims code. The reason is purely practical (length of this list) - please credit others as well.

------------------------------------------------------------
          Leaving FHI-aims.
          Date     :  20240626, Time     :  194219.539

          Computational steps:
          | Number of self-consistency cycles          :           46
          | Number of SCF (re)initializations          :            1

          Detailed time accounting                     :  max(cpu_time)    wall_clock(cpu1)
          | Total time                                  :      396.891 s         398.829 s
          | Preparation time                            :        0.395 s           0.858 s
          | Boundary condition initalization            :        0.178 s           0.203 s
          | Grid partitioning                           :        0.724 s           0.699 s
          | Preloading free-atom quantities on grid     :        0.185 s           0.211 s
          | Free-atom superposition energy              :        0.036 s           0.038 s
          | Total time for integrations                 :       11.296 s          11.337 s
          | Product basis setup: Total time             :        0.000 s           0.000 s
          | Product basis: | 2-center integrations     :(       0.000 s)  (       0.000 s)
          | Product basis: | LVL 3-center & coefficient:(       0.000 s)  (       0.000 s)
          | Total time for solution of K.-S. equations  :       57.426 s          57.654 s
          | Total time for density update               :       30.215 s          30.223 s
          | Total time for mixing & preconditioning     :       14.408 s          14.425 s
          | Total time for Hartree multipole update     :        0.230 s           0.237 s
          | Total time for Hartree multipole sum        :        9.335 s           9.365 s
          | Total time for total energy evaluation      :        0.123 s           0.223 s
          | Total time for scaled ZORA corrections      :        0.000 s           0.000 s

          Partial memory accounting:
          | Residual value for overall tracked memory usage across tasks:     0.000000 MB (should be 0.000000 MB)
          | Peak values for overall tracked memory usage:
          |   Minimum:       64.471 MB (on task  75 after allocating wave)
          |   Maximum:       72.102 MB (on task 111 after allocating wave)
          |   Average:       66.937 MB
          | Largest tracked array allocation:
          |   Minimum:       15.525 MB (overlap_matrix on task   0)
          |   Maximum:       15.525 MB (overlap_matrix on task   0)
          |   Average:       15.525 MB
          Note:  These values currently only include a subset of arrays which are explicitly tracked.
          The "true" memory usage will be greater.

          Have a nice day.
------------------------------------------------------------
