------------------------------------------------------------
          Invoking FHI-aims ...

          When using FHI-aims, please cite the following reference:

            Volker Blum, Ralf Gehrke, Felix Hanke, Paula Havu,
            Ville Havu, Xinguo Ren, Karsten Reuter, and Matthias Scheffler,
            'Ab Initio Molecular Simulations with Numeric Atom-Centered Orbitals',
            Computer Physics Communications 180, 2175-2196 (2009)

          In addition, many other developments in FHI-aims are likely important for
          your particular application. If so, please cite them. A partial list of references
          is written at the end of this file. Thank you for giving credit to the authors
          of these developments.

          For general information about FHI-aims please find us at

            https://fhi-aims.org

          Online tutorials can be found at

            https://fhi-aims-club.gitlab.io/tutorials/tutorials-overview/

          For any questions about FHI-aims, please visit our slack channel at

            https://fhi-aims.slack.com

          and our main development and support site at

            https://aims-git.rz-berlin.mpg.de .

          The latter site, in particular, has a wiki to collect information, as well
          as an issue tracker to log discussions, suggest improvements, and report issues
          or bugs. https://aims-git.rz-berlin.mpg.de is also the main development site
          of the project and all new and updated code versions can be obtained there.
          Please send an email to aims-coordinators@fhi-berlin.mpg.de and we will add
          you to these sites. They are for you and everyone is welcome there.

------------------------------------------------------------



  Date     :  20240624, Time     :  140626.529
  Time zero on CPU 1             :   0.550020000000000E+00  s.
  Internal wall clock time zero  :           488469986.529  s.

  FHI-aims created a unique identifier for this run for later identification
  aims_uuid : D21EB793-9E82-4264-A8A3-C2543BAED186

  Build configuration of the current instance of FHI-aims
  -------------------------------------------------------
  FHI-aims version      : 240507
  Commit number         : f9a188a83
  CMake host system     : Linux-4.12.14-122.201-default
  CMake version         : 3.18.4
  Fortran compiler      : /mpcdf/soft/SLE_12/packages/x86_64/intel_oneapi/2022.2/mpi/2021.6.0/bin/mpiifort (Intel) version 20.2.6.20220226
  Fortran compiler flags: -O3 -ip -fp-model precise
  C compiler            : /mpcdf/soft/SLE_12/packages/x86_64/intel_oneapi/2022.2/mpi/2021.6.0/bin/mpiicc (Intel) version 20.2.6.20220226
  C compiler flags      : -O3 -ip -fp-model precise -std=gnu99
  C++ compiler          : /mpcdf/soft/SLE_12/packages/x86_64/intel/2021.6.0/bin/icpc (Intel) version 20.2.6.20220226
  C++ compiler flags    : -O3 -ip -fp-model precise
  HIP compiler          :
  HIP compiler flags    :
  HIP GPU arch          :
  Using MPI
  Using ScaLAPACK
  Using LibXC
  Using i-PI
  Using RLSY
  Linking against: /mpcdf/soft/SLE_12/packages/x86_64/intel_oneapi/2022.2/mkl/latest/lib/intel64/libmkl_intel_lp64.so
                   /mpcdf/soft/SLE_12/packages/x86_64/intel_oneapi/2022.2/mkl/latest/lib/intel64/libmkl_sequential.so
                   /mpcdf/soft/SLE_12/packages/x86_64/intel_oneapi/2022.2/mkl/latest/lib/intel64/libmkl_core.so
                   /mpcdf/soft/SLE_12/packages/x86_64/intel_oneapi/2022.2/mkl/latest/lib/intel64/libmkl_blacs_intelmpi_lp64.so
                   /mpcdf/soft/SLE_12/packages/x86_64/intel_oneapi/2022.2/mkl/latest/lib/intel64/libmkl_scalapack_lp64.so

  Using       80 parallel tasks.
  Task        0 on host co6520 reporting.
  Task        1 on host co6520 reporting.
  Task        2 on host co6520 reporting.
  Task        3 on host co6520 reporting.
  Task        4 on host co6520 reporting.
  Task        5 on host co6520 reporting.
  Task        6 on host co6520 reporting.
  Task        7 on host co6520 reporting.
  Task        8 on host co6520 reporting.
  Task        9 on host co6520 reporting.
  Task       10 on host co6520 reporting.
  Task       11 on host co6520 reporting.
  Task       12 on host co6520 reporting.
  Task       13 on host co6520 reporting.
  Task       14 on host co6520 reporting.
  Task       15 on host co6520 reporting.
  Task       16 on host co6520 reporting.
  Task       17 on host co6520 reporting.
  Task       18 on host co6520 reporting.
  Task       19 on host co6520 reporting.
  Task       20 on host co6520 reporting.
  Task       21 on host co6520 reporting.
  Task       22 on host co6520 reporting.
  Task       23 on host co6520 reporting.
  Task       24 on host co6520 reporting.
  Task       25 on host co6520 reporting.
  Task       26 on host co6520 reporting.
  Task       27 on host co6520 reporting.
  Task       28 on host co6520 reporting.
  Task       29 on host co6520 reporting.
  Task       30 on host co6520 reporting.
  Task       31 on host co6520 reporting.
  Task       32 on host co6520 reporting.
  Task       33 on host co6520 reporting.
  Task       34 on host co6520 reporting.
  Task       35 on host co6520 reporting.
  Task       36 on host co6520 reporting.
  Task       37 on host co6520 reporting.
  Task       38 on host co6520 reporting.
  Task       39 on host co6520 reporting.
  Task       40 on host co6626 reporting.
  Task       41 on host co6626 reporting.
  Task       42 on host co6626 reporting.
  Task       43 on host co6626 reporting.
  Task       44 on host co6626 reporting.
  Task       45 on host co6626 reporting.
  Task       46 on host co6626 reporting.
  Task       47 on host co6626 reporting.
  Task       48 on host co6626 reporting.
  Task       49 on host co6626 reporting.
  Task       50 on host co6626 reporting.
  Task       51 on host co6626 reporting.
  Task       52 on host co6626 reporting.
  Task       53 on host co6626 reporting.
  Task       54 on host co6626 reporting.
  Task       55 on host co6626 reporting.
  Task       56 on host co6626 reporting.
  Task       57 on host co6626 reporting.
  Task       58 on host co6626 reporting.
  Task       59 on host co6626 reporting.
  Task       60 on host co6626 reporting.
  Task       61 on host co6626 reporting.
  Task       62 on host co6626 reporting.
  Task       63 on host co6626 reporting.
  Task       64 on host co6626 reporting.
  Task       65 on host co6626 reporting.
  Task       66 on host co6626 reporting.
  Task       67 on host co6626 reporting.
  Task       68 on host co6626 reporting.
  Task       69 on host co6626 reporting.
  Task       70 on host co6626 reporting.
  Task       71 on host co6626 reporting.
  Task       72 on host co6626 reporting.
  Task       73 on host co6626 reporting.
  Task       74 on host co6626 reporting.
  Task       75 on host co6626 reporting.
  Task       76 on host co6626 reporting.
  Task       77 on host co6626 reporting.
  Task       78 on host co6626 reporting.
  Task       79 on host co6626 reporting.

  Memory overcommitment is allowed on your operating system.

  Obtaining array dimensions for all initial allocations:
  
  -----------------------------------------------------------------------
  Parsing control.in (first pass over file, find array dimensions only).
  The contents of control.in will be repeated verbatim below
  unless switched off by setting 'verbatim_writeout .false.' .
  in the first line of control.in .
  -----------------------------------------------------------------------
  
  xc                 pbe
  relativistic       atomic_zora scalar
  k_grid 8 8 1
  spin               none
  charge             0.
  # use_dipole_correction: for surface slab calculations
  use_dipole_correction
  
  # elsi_restart read_and_write 1
  ri_density_restart write
  ri_full_output .True.
  ri_output_density_only .True.
  default_max_l_prodbas 6
  default_prodbas_acc 1e-4
  # wave_threshold default: 1e-6 for no output, 1e-8 for output
  wave_threshold 1e-6
  
  
  
  ################################################################################
  #
  #  FHI-aims code project
  #  VB, Fritz-Haber Institut, 2009
  #
  #  Suggested "light" defaults for C atom (to be pasted into control.in file)
  #  Be sure to double-check any results obtained with these settings for post-processing,
  #  e.g., with the "tight" defaults and larger basis sets.
  #
  ################################################################################
    species        C
  #     global species definitions
      nucleus             6
      mass                12.0107
  #
      l_hartree           4
  #
      cut_pot             3.5  1.5  1.0
      basis_dep_cutoff    1e-4
  #
      radial_base         34 5.0
      radial_multiplier   1
      angular_grids specified
        division   0.3326   50
        division   0.5710  110
        division   0.7727  194
        division   0.8772  302
  #      division   0.9334  434
  #      division   0.9625  590
  #      division   0.9924  770
  #      division   1.0230  974
  #      division   1.4589 1202
  #     outer_grid  974
       outer_grid 302
  ################################################################################
  #
  #  Definition of "minimal" basis
  #
  ################################################################################
  #     valence basis states
      valence      2  s   2.
      valence      2  p   2.
  #     ion occupancy
      ion_occ      2  s   1.
      ion_occ      2  p   1.
  ################################################################################
  #
  #  Suggested additional basis functions. For production calculations,
  #  uncomment them one after another (the most important basis functions are
  #  listed first).
  #
  #  Constructed for dimers: 1.0 A, 1.25 A, 1.5 A, 2.0 A, 3.0 A
  #
  ################################################################################
  #  "First tier" - improvements: -1214.57 meV to -155.61 meV
       hydro 2 p 1.7
       hydro 3 d 6
       hydro 2 s 4.9
  #  "Second tier" - improvements: -67.75 meV to -5.23 meV
  #     hydro 4 f 9.8
  #     hydro 3 p 5.2
  #     hydro 3 s 4.3
  #     hydro 5 g 14.4
  #     hydro 3 d 6.2
  #  "Third tier" - improvements: -2.43 meV to -0.60 meV
  #     hydro 2 p 5.6
  #     hydro 2 s 1.4
  #     hydro 3 d 4.9
  #     hydro 4 f 11.2
  #  "Fourth tier" - improvements: -0.39 meV to -0.18 meV
  #     hydro 2 p 2.1
  #     hydro 5 g 16.4
  #     hydro 4 d 13.2
  #     hydro 3 s 13.6
  #     hydro 4 f 17.6
  #  Further basis functions - improvements: -0.08 meV and below
  #     hydro 3 s 2
  #     hydro 3 p 6
  #     hydro 4 d 20
  
  -----------------------------------------------------------------------
  Completed first pass over input file control.in .
  -----------------------------------------------------------------------
  
  
  -----------------------------------------------------------------------
  Parsing geometry.in (first pass over file, find array dimensions only).
  The contents of geometry.in will be repeated verbatim below
  unless switched off by setting 'verbatim_writeout .false.' .
  in the first line of geometry.in .
  -----------------------------------------------------------------------
  
  #=======================================================
  # FHI-aims file: /u/zklou/projects/salted/2406ppr/graphene/inter_3x3/qmdata/data/geoms/1.in
  # Created using the Atomic Simulation Environment (ASE)
  # Tue Jun  4 18:30:39 2024
  #=======================================================
  lattice_vector 7.3784999999999989 0.0000000000000000 0.0000000000000000
  lattice_vector 3.6892499999999995 6.3899699999999999 0.0000000000000000
  lattice_vector 0.0000000000000000 0.0000000000000000 100.0000000000000000
  atom 0.3633529600000000 0.2391429400000000 48.2802205899999990 C
  atom 1.5751536700000000 0.9348423100000000 48.2486138299999965 C
  atom 1.5835589400000001 2.3559287100000001 48.1999720999999965 C
  atom 2.8510680499999999 3.0041793499999998 48.2783463999999967 C
  atom 2.8339834499999998 4.4661917600000001 48.2317275999999993 C
  atom 4.0419926799999999 5.1923501999999999 48.2543327400000024 C
  atom 2.8273537300000000 0.1921778000000000 48.2316945700000019 C
  atom 4.0557369999999997 0.9034241000000000 48.2404860999999983 C
  atom 4.1212850899999998 2.3234308600000002 48.1915826500000009 C
  atom 5.2932857799999997 3.0759635699999999 48.2456126000000012 C
  atom 5.2694065900000000 4.5308144700000001 48.1936924899999966 C
  atom 6.4923877100000000 5.1388603200000000 48.2173002899999972 C
  atom 5.2910428100000004 0.2529260600000000 48.1835999500000014 C
  atom 6.5071497699999998 0.9185989400000000 48.1920133500000034 C
  atom 6.5835874700000003 2.3613459899999998 48.2052386200000029 C
  atom 7.7598743700000004 3.0498057599999999 48.2940637499999994 C
  atom 7.7837668100000004 4.5510283200000003 48.2169847199999992 C
  atom 9.0321276499999996 5.1500368200000004 48.1693300800000017 C
  atom 2.1272159899999998 0.3393807900000000 51.7800822600000004 C
  atom 3.3762668300000001 1.1106547200000001 51.7966998500000031 C
  atom 3.4067264800000001 2.5204062199999999 51.8210823200000021 C
  atom 4.6489139000000002 3.2265001999999998 51.7998173200000025 C
  atom 4.5482270199999997 4.5627564100000004 51.7795367700000000 C
  atom 5.7760644000000001 5.2984679600000000 51.7639708999999968 C
  atom 4.5938143299999998 0.3472059300000000 51.7837062600000024 C
  atom 5.7974085899999999 1.0014999899999999 51.8032682600000030 C
  atom 5.7422278200000001 2.4681560899999999 51.7387318399999998 C
  atom 7.0328958899999998 3.1832351600000002 51.7693549600000011 C
  atom 7.0584312499999999 4.5898100800000003 51.7171115299999968 C
  atom 8.3295215099999993 5.2971201700000003 51.7415152599999999 C
  atom 7.0580910100000001 0.3230157500000000 51.7504362700000016 C
  atom 0.9229090599999999 1.0847277300000000 51.7721962800000028 C
  atom 8.3126324399999998 2.4139933199999999 51.7712574099999969 C
  atom 2.1622705400000002 3.2500878499999999 51.8411253399999978 C
  atom 9.5356203599999994 4.5912909600000003 51.7699461899999989 C
  atom 3.4097703699999999 5.3631895299999996 51.7253485900000030 C
  
  -----------------------------------------------------------------------
  Completed first pass over input file geometry.in .
  -----------------------------------------------------------------------
  

  Basic array size parameters:
  | Number of species                 :        1
  | Number of atoms                   :       36
  | Number of lattice vectors         :        3
  | Max. basis fn. angular momentum   :        2
  | Max. atomic/ionic basis occupied n:        2
  | Max. number of basis fn. types    :        2
  | Max. radial fns per species/type  :        3
  | Max. logarithmic grid size        :     1277
  | Max. radial integration grid size :       34
  | Max. angular integration grid size:      302
  | Max. angular grid division number :        8
  | Radial grid for Hartree potential :     1277
  | Number of spin channels           :        1

------------------------------------------------------------
          Reading file control.in.
------------------------------------------------------------
  XC: Using PBE gradient-corrected functionals.
  Scalar relativistic treatment of kinetic energy: on-site free-atom approximation to ZORA.
  Found k-point grid:         8         8         1
  Spin treatment: No spin polarisation.
  Charge =   0.000000E+00: Neutral system requested explicitly.
  Using dipole correction.
  Threshold value for wave function integration:  0.1000E-05
 
  Reading configuration options for species C                   .
  | Found nuclear charge :   6.0000
  | Found atomic mass :    12.0107000000000      amu
  | Found l_max for Hartree potential  :   4
  | Found cutoff potl. onset [A], width [A], scale factor :    3.50000    1.50000    1.00000
  | Threshold for basis-dependent cutoff potential is   0.100000E-03
  | Found data for basic radial integration grid :    34 points, outermost radius =    5.000 A
  | Found multiplier for basic radial grid :   1
  | Found angular grid specification: user-specified.
  | Specified grid contains     5 separate shells.
  | Check grid settings after all constraints further below.
  | Found free-atom valence shell :  2 s   2.000
  | Found free-atom valence shell :  2 p   2.000
  | No ionic wave fns used. Skipping ion_occ.
  | No ionic wave fns used. Skipping ion_occ.
  | Found hydrogenic basis function :  2 p   1.700
  | Found hydrogenic basis function :  3 d   6.000
  | Found hydrogenic basis function :  2 s   4.900
  Species C                   : Missing cutoff potential type.
  Defaulting to exp(1/x)/(1-x)^2 type cutoff potential.
  Species C : No 'logarithmic' tag. Using default grid for free atom:
  | Default logarithmic grid data [bohr] : 0.1000E-03 0.1000E+03 0.1012E+01
  Species C : On-site basis accuracy parameter (for Gram-Schmidt orthonormalisation) not specified.
  Using default value basis_acc =  0.1000000E-03.
  Species C                   : Using default innermost maximum threshold i_radial=  2 for radial functions.
  Species C                   : Default cutoff onset for free atom density etc. : 0.35000000E+01 AA.
  Species C                   : Basic radial grid will be enhanced according to radial_multiplier =   1, to contain    34 grid points.
 
  Finished reading input file 'control.in'.
 
------------------------------------------------------------


------------------------------------------------------------
          Reading geometry description geometry.in.
------------------------------------------------------------
  | The smallest distance between any two atoms is         1.32931330 AA.
  | The first atom of this pair is atom number                     32 .
  | The second atom of this pair is atom number                    33 .
  | Wigner-Seitz cell of the first atom image           0     0     0 .
  | (The Wigner-Seitz cell of the second atom is 0 0 0  by definition.)

  Symmetry information by spglib:
  | Precision set to  0.1E-04
  | Number of Operations  : 1
  | Space group           : 1
  | International         : P1
  | Schoenflies           : C1^1
  Input structure read successfully.
  The structure contains       36 atoms,  and a total of        216.000 electrons.

  Input geometry:
  | Unit cell:
  |        7.37850000        0.00000000        0.00000000
  |        3.68925000        6.38997000        0.00000000
  |        0.00000000        0.00000000      100.00000000
  | Atomic structure:
  |       Atom                x [A]            y [A]            z [A]
  |    1: Species C             0.36335296        0.23914294       48.28022059
  |    2: Species C             1.57515367        0.93484231       48.24861383
  |    3: Species C             1.58355894        2.35592871       48.19997210
  |    4: Species C             2.85106805        3.00417935       48.27834640
  |    5: Species C             2.83398345        4.46619176       48.23172760
  |    6: Species C             4.04199268        5.19235020       48.25433274
  |    7: Species C             2.82735373        0.19217780       48.23169457
  |    8: Species C             4.05573700        0.90342410       48.24048610
  |    9: Species C             4.12128509        2.32343086       48.19158265
  |   10: Species C             5.29328578        3.07596357       48.24561260
  |   11: Species C             5.26940659        4.53081447       48.19369249
  |   12: Species C             6.49238771        5.13886032       48.21730029
  |   13: Species C             5.29104281        0.25292606       48.18359995
  |   14: Species C             6.50714977        0.91859894       48.19201335
  |   15: Species C             6.58358747        2.36134599       48.20523862
  |   16: Species C             7.75987437        3.04980576       48.29406375
  |   17: Species C             7.78376681        4.55102832       48.21698472
  |   18: Species C             9.03212765        5.15003682       48.16933008
  |   19: Species C             2.12721599        0.33938079       51.78008226
  |   20: Species C             3.37626683        1.11065472       51.79669985
  |   21: Species C             3.40672648        2.52040622       51.82108232
  |   22: Species C             4.64891390        3.22650020       51.79981732
  |   23: Species C             4.54822702        4.56275641       51.77953677
  |   24: Species C             5.77606440        5.29846796       51.76397090
  |   25: Species C             4.59381433        0.34720593       51.78370626
  |   26: Species C             5.79740859        1.00149999       51.80326826
  |   27: Species C             5.74222782        2.46815609       51.73873184
  |   28: Species C             7.03289589        3.18323516       51.76935496
  |   29: Species C             7.05843125        4.58981008       51.71711153
  |   30: Species C             8.32952151        5.29712017       51.74151526
  |   31: Species C             7.05809101        0.32301575       51.75043627
  |   32: Species C             0.92290906        1.08472773       51.77219628
  |   33: Species C             8.31263244        2.41399332       51.77125741
  |   34: Species C             2.16227054        3.25008785       51.84112534
  |   35: Species C             9.53562036        4.59129096       51.76994619
  |   36: Species C             3.40977037        5.36318953       51.72534859

  Lattice parameters for 3D lattice (in Angstroms) :     7.378500    7.378501  100.000000
  Angle(s) between unit vectors (in degrees)       :    90.000000   90.000000   60.000006


  Quantities derived from the lattice vectors (in Angstrom^-1):
  | Reciprocal lattice vector 1:  0.851553 -0.491644  0.000000
  | Reciprocal lattice vector 2: -0.000000  0.983289  0.000000
  | Reciprocal lattice vector 3:  0.000000  0.000000  0.062832
  | Unit cell volume                               :   0.471484E+04  Angstrom^3

  Fractional coordinates:
                         L1                L2                L3
       atom_frac         0.03053246        0.03742474        0.48280221  C
       atom_frac         0.14032965        0.14629839        0.48248614  C
       atom_frac         0.03027217        0.36869167        0.48199972  C
       atom_frac         0.15133221        0.47013982        0.48278346  C
       atom_frac         0.03461775        0.69893783        0.48231728  C
       atom_frac         0.14151774        0.81257818        0.48254333  C
       atom_frac         0.36815069        0.03007491        0.48231695  C
       atom_frac         0.47897879        0.14138159        0.48240486  C
       atom_frac         0.37675029        0.36360591        0.48191583  C
       atom_frac         0.47670635        0.48137371        0.48245613  C
       atom_frac         0.35963140        0.70905098        0.48193692  C
       atom_frac         0.47780254        0.80420727        0.48217300  C
       atom_frac         0.69729836        0.03958173        0.48183600  C
       atom_frac         0.81002867        0.14375638        0.48192013  C
       atom_frac         0.70749665        0.36953945        0.48205239  C
       atom_frac         0.81304718        0.47728014        0.48294064  C
       atom_frac         0.69881819        0.71221435        0.48216985  C
       atom_frac         0.82113617        0.80595634        0.48169330  C
       atom_frac         0.26174350        0.05311148        0.51780082  C
       atom_frac         0.37067564        0.17381220        0.51796700  C
       atom_frac         0.26449409        0.39443162        0.51821082  C
       atom_frac         0.37759620        0.50493198        0.51799817  C
       atom_frac         0.25939134        0.71404974        0.51779537  C
       atom_frac         0.36823111        0.82918511        0.51763971  C
       atom_frac         0.59542657        0.05433608        0.51783706  C
       atom_frac         0.70735142        0.15673000        0.51803268  C
       atom_frac         0.58511047        0.38625472        0.51738732  C
       atom_frac         0.70408005        0.49816121        0.51769355  C
       atom_frac         0.59747968        0.71828351        0.51717112  C
       atom_frac         0.71440381        0.82897418        0.51741515  C
       atom_frac         0.93130011        0.05055043        0.51750436  C
       atom_frac         0.04020348        0.16975475        0.51772196  C
       atom_frac         0.93771269        0.37777851        0.51771257  C
       atom_frac         0.03873848        0.50862333        0.51841125  C
       atom_frac         0.93309452        0.71851526        0.51769946  C
       atom_frac         0.04246557        0.83931373        0.51725349  C

  Slab Identifier: This is Z-oriented slab and maximum thickness of the vacuum is: 96.328 Angstrom.
 
  Finished reading input file 'geometry.in'.
 

 
  Consistency checks for stacksize environment parameter are next.
 
  | Maximum stacksize for task 0: unlimited
  | Maximum stacksize for task 1: unlimited
  | Maximum stacksize for task 2: unlimited
  | Maximum stacksize for task 3: unlimited
  | Maximum stacksize for task 4: unlimited
  | Maximum stacksize for task 5: unlimited
  | Maximum stacksize for task 6: unlimited
  | Maximum stacksize for task 7: unlimited
  | Maximum stacksize for task 8: unlimited
  | Maximum stacksize for task 9: unlimited
  | Maximum stacksize for task 10: unlimited
  | Maximum stacksize for task 11: unlimited
  | Maximum stacksize for task 12: unlimited
  | Maximum stacksize for task 13: unlimited
  | Maximum stacksize for task 14: unlimited
  | Maximum stacksize for task 15: unlimited
  | Maximum stacksize for task 16: unlimited
  | Maximum stacksize for task 17: unlimited
  | Maximum stacksize for task 18: unlimited
  | Maximum stacksize for task 19: unlimited
  | Maximum stacksize for task 20: unlimited
  | Maximum stacksize for task 21: unlimited
  | Maximum stacksize for task 22: unlimited
  | Maximum stacksize for task 23: unlimited
  | Maximum stacksize for task 24: unlimited
  | Maximum stacksize for task 25: unlimited
  | Maximum stacksize for task 26: unlimited
  | Maximum stacksize for task 27: unlimited
  | Maximum stacksize for task 28: unlimited
  | Maximum stacksize for task 29: unlimited
  | Maximum stacksize for task 30: unlimited
  | Maximum stacksize for task 31: unlimited
  | Maximum stacksize for task 32: unlimited
  | Maximum stacksize for task 33: unlimited
  | Maximum stacksize for task 34: unlimited
  | Maximum stacksize for task 35: unlimited
  | Maximum stacksize for task 36: unlimited
  | Maximum stacksize for task 37: unlimited
  | Maximum stacksize for task 38: unlimited
  | Maximum stacksize for task 39: unlimited
  | Maximum stacksize for task 40: unlimited
  | Maximum stacksize for task 41: unlimited
  | Maximum stacksize for task 42: unlimited
  | Maximum stacksize for task 43: unlimited
  | Maximum stacksize for task 44: unlimited
  | Maximum stacksize for task 45: unlimited
  | Maximum stacksize for task 46: unlimited
  | Maximum stacksize for task 47: unlimited
  | Maximum stacksize for task 48: unlimited
  | Maximum stacksize for task 49: unlimited
  | Maximum stacksize for task 50: unlimited
  | Maximum stacksize for task 51: unlimited
  | Maximum stacksize for task 52: unlimited
  | Maximum stacksize for task 53: unlimited
  | Maximum stacksize for task 54: unlimited
  | Maximum stacksize for task 55: unlimited
  | Maximum stacksize for task 56: unlimited
  | Maximum stacksize for task 57: unlimited
  | Maximum stacksize for task 58: unlimited
  | Maximum stacksize for task 59: unlimited
  | Maximum stacksize for task 60: unlimited
  | Maximum stacksize for task 61: unlimited
  | Maximum stacksize for task 62: unlimited
  | Maximum stacksize for task 63: unlimited
  | Maximum stacksize for task 64: unlimited
  | Maximum stacksize for task 65: unlimited
  | Maximum stacksize for task 66: unlimited
  | Maximum stacksize for task 67: unlimited
  | Maximum stacksize for task 68: unlimited
  | Maximum stacksize for task 69: unlimited
  | Maximum stacksize for task 70: unlimited
  | Maximum stacksize for task 71: unlimited
  | Maximum stacksize for task 72: unlimited
  | Maximum stacksize for task 73: unlimited
  | Maximum stacksize for task 74: unlimited
  | Maximum stacksize for task 75: unlimited
  | Maximum stacksize for task 76: unlimited
  | Maximum stacksize for task 77: unlimited
  | Maximum stacksize for task 78: unlimited
  | Maximum stacksize for task 79: unlimited
  | Current stacksize for task 0: unlimited
  | Current stacksize for task 1: unlimited
  | Current stacksize for task 2: unlimited
  | Current stacksize for task 3: unlimited
  | Current stacksize for task 4: unlimited
  | Current stacksize for task 5: unlimited
  | Current stacksize for task 6: unlimited
  | Current stacksize for task 7: unlimited
  | Current stacksize for task 8: unlimited
  | Current stacksize for task 9: unlimited
  | Current stacksize for task 10: unlimited
  | Current stacksize for task 11: unlimited
  | Current stacksize for task 12: unlimited
  | Current stacksize for task 13: unlimited
  | Current stacksize for task 14: unlimited
  | Current stacksize for task 15: unlimited
  | Current stacksize for task 16: unlimited
  | Current stacksize for task 17: unlimited
  | Current stacksize for task 18: unlimited
  | Current stacksize for task 19: unlimited
  | Current stacksize for task 20: unlimited
  | Current stacksize for task 21: unlimited
  | Current stacksize for task 22: unlimited
  | Current stacksize for task 23: unlimited
  | Current stacksize for task 24: unlimited
  | Current stacksize for task 25: unlimited
  | Current stacksize for task 26: unlimited
  | Current stacksize for task 27: unlimited
  | Current stacksize for task 28: unlimited
  | Current stacksize for task 29: unlimited
  | Current stacksize for task 30: unlimited
  | Current stacksize for task 31: unlimited
  | Current stacksize for task 32: unlimited
  | Current stacksize for task 33: unlimited
  | Current stacksize for task 34: unlimited
  | Current stacksize for task 35: unlimited
  | Current stacksize for task 36: unlimited
  | Current stacksize for task 37: unlimited
  | Current stacksize for task 38: unlimited
  | Current stacksize for task 39: unlimited
  | Current stacksize for task 40: unlimited
  | Current stacksize for task 41: unlimited
  | Current stacksize for task 42: unlimited
  | Current stacksize for task 43: unlimited
  | Current stacksize for task 44: unlimited
  | Current stacksize for task 45: unlimited
  | Current stacksize for task 46: unlimited
  | Current stacksize for task 47: unlimited
  | Current stacksize for task 48: unlimited
  | Current stacksize for task 49: unlimited
  | Current stacksize for task 50: unlimited
  | Current stacksize for task 51: unlimited
  | Current stacksize for task 52: unlimited
  | Current stacksize for task 53: unlimited
  | Current stacksize for task 54: unlimited
  | Current stacksize for task 55: unlimited
  | Current stacksize for task 56: unlimited
  | Current stacksize for task 57: unlimited
  | Current stacksize for task 58: unlimited
  | Current stacksize for task 59: unlimited
  | Current stacksize for task 60: unlimited
  | Current stacksize for task 61: unlimited
  | Current stacksize for task 62: unlimited
  | Current stacksize for task 63: unlimited
  | Current stacksize for task 64: unlimited
  | Current stacksize for task 65: unlimited
  | Current stacksize for task 66: unlimited
  | Current stacksize for task 67: unlimited
  | Current stacksize for task 68: unlimited
  | Current stacksize for task 69: unlimited
  | Current stacksize for task 70: unlimited
  | Current stacksize for task 71: unlimited
  | Current stacksize for task 72: unlimited
  | Current stacksize for task 73: unlimited
  | Current stacksize for task 74: unlimited
  | Current stacksize for task 75: unlimited
  | Current stacksize for task 76: unlimited
  | Current stacksize for task 77: unlimited
  | Current stacksize for task 78: unlimited
  | Current stacksize for task 79: unlimited
 
  Consistency checks for the contents of control.in are next.
 
  MPI_IN_PLACE appears to work with this MPI implementation.
  | Keeping use_mpi_in_place .true. (see manual).
  Explicit treatment of the Coulomb operator is needed, but the RI method is not specified.
  Coulomb operator: Defaulting to 'LVL fast' resolution of identity - RI_type = LVL_fast
  Species C: Using default value for prodbas_acc =   1.000000E-04.
  Species C: Using default value max_l_prodbas =     6.
  Target number of points in a grid batch is not set. Defaulting to  100
  Method for grid partitioning is not set. Defaulting to parallel hash+maxmin partitioning.
  Batch size limit is not set. Defaulting to    200
  By default, will store active basis functions for each batch.
  If in need of memory, prune_basis_once .false. can be used to disable this option.
  communication_type for Hartree potential was not specified.
  Defaulting to calc_hartree .
  Defaulting to Pulay charge density mixer.
  Pulay mixer: Number of relevant iterations not set.
  Defaulting to    8 iterations.
  Pulay mixer: Number of initial linear mixing iterations not set.
  Defaulting to    0 iterations.
  Work space size for distributed Hartree potential not set.
  Defaulting to   0.200000E+03 MB.
  Mixing parameter for charge density mixing has not been set.
  Using default: charge_mix_param =     0.0500.
  The mixing parameter will be adjusted in iteration number     2 of the first full s.c.f. cycle only.
  Algorithm-dependent basis array size parameters:
  | n_max_pulay                         :        8
  Maximum number of self-consistency iterations not provided.
  Presetting  1000 iterations.
  Presetting      1001 iterations before the initial mixing cycle
  is restarted anyway using the sc_init_iter criterion / keyword.
  Presetting a factor      1.000 between actual scf density residual
  and density convergence criterion sc_accuracy_rho below which sc_init_iter
  takes no effect.
 * No s.c.f. convergence criteria (sc_accuracy_*) were provided in control.in.
 * The run will proceed with a reasonable default guess, but please check whether.
 * the s.c.f. cycles seem to take too much or too little time.
  Calculation of forces was not defined in control.in. No forces will be calculated.
  Geometry relaxation not requested: no relaxation will be performed.
 * Notice: The s.c.f. convergence criterion sc_accuracy_rho was not provided.
 * We used to stop in this case, and ask the user to provide reasonable
 * scf convergence criteria. However, this led some users to employ criteria
 * that led to extremely long run times, e.g., for simple relaxation.
 * We now preset a default value for sc_accuracy_rho if it is not set.
 * You may still wish to check if this setting is too tight or too loose for your needs.
 * Based on n_atoms and forces and force-correction status, FHI-aims chose sc_accuracy_rho =  0.195959E-04 .
  No accuracy limit for integral partition fn. given. Defaulting to  0.1000E-14.
  No occupation type (smearing scheme) given. Defaulting to Gaussian broadening, width =  0.1000E-01 eV.
  The width will be adjusted in iteration number     2 of the first full s.c.f. cycle only.
  S.C.F. convergence parameters will be adjusted in iteration number     2 of the first full s.c.f. cycle only.
  No accuracy for occupation numbers given. Defaulting to  0.1000E-12.
  No threshold value for occupation numbers given. Defaulting to  0.0000E+00.
  No accuracy for fermi level given. Defaulting to  0.1000E-19.
  Maximum # of iterations to find E_F not set. Defaulting to  200.
  Preferred method for the eigenvalue solver ('KS_method') not specified in 'control.in'.
  Calling BLACS routine to test compilation state
  Since ScaLAPACK support is enabled, defaulting to ELPA (via ELSI).
  Will not use alltoall communication since running on < 1024 CPUs.
  Threshold for basis singularities not set.
  Default threshold for basis singularities:  0.1000E-04
  partition_type (choice of integration weights) for integrals was not specified.
  | Using a version of the partition function of Stratmann and coworkers ('stratmann_sparse').
  | At each grid point, the set of atoms used to build the partition table is smoothly restricted to
  | only those atoms whose free-atom density would be non-zero at that grid point.
  Partitioning for Hartree potential was not defined. Using partition_type for integrals.
  | Adjusted default value of keyword multip_moments_threshold to:       0.10000000E-11
  | This value may affect high angular momentum components of the Hartree potential in periodic systems.
  Angular momentum expansion for Kerker preconditioner not set explicitly.
  | Using default value of   0
  No explicit requirement for turning off preconditioner.
  | By default, it will be turned off when the charge convergence reaches
  | sc_accuracy_rho  =   0.195959E-04
  No special mixing parameter while Kerker preconditioner is on.
  Using default: charge_mix_param =     0.0500.
  Threshold for auxiliary basis singularities not set.
  Default threshold for auxiliary basis singularities:  0.1000E-04
  No q(lm)/r^(l+1) cutoff set for long-range Hartree potential.
  | Using default value of  0.100000E-09 .
  | Verify using the multipole_threshold keyword.
  Defaulting to new monopole extrapolation.
  Density update method: automatic selection selected.
  Using density matrix based charge density update.
  Using density matrix based charge density update.
  Using packed matrix style: index .
  Defaulting to use time-reversal symmetry for k-point grid.
  Charge integration errors on the 3D integration grid will be compensated
  by explicit normalization and distribution of residual charges.
  Use the "compensate_multipole_errors" flag to change this behaviour.
  Default to 1D ("use_logsbt") integrations for auxiliary 2-center integrals.
  Default onset of logarithmic r-grid for SBT is -38.000000000000
  Default onset of logarithmic k-grid for SBT is -25.000000000000
  Default range of logarithmic r- and k-grid for SBT is  45.000000000000
  Default number of logarithmic r- and k-grid for SBT is   4096
  Default of use_2d_corr is to use the efficient 2D distribution where possible
  Found no potential conflicts with setting 'use_local_index' for this calculation.
  Flag 'use_local_index' has not been set.
  Testing whether we classify this calculation as large-scale ...
  The calculation contains less than 100 atoms. This is most likely not a large-scale calculation.
  Not setting 'use_local_index'.
 
  Consistency checks for the contents of geometry.in are next.
 

  Range separation radius for Ewald summation (hartree_convergence_parameter):      5.00000000 bohr.
  Number of empty states per atom not set in control.in - providing a guess from actual geometry.
  | Total number of empty states used during s.c.f. cycle:      108
  If you use a very high smearing, use empty_states (per atom!) in control.in to increase this value.

  Structure-dependent array size parameters: 
  | Maximum number of distinct radial functions  :        6
  | Maximum number of basis functions            :      504
  | Number of Kohn-Sham states (occupied + empty):      216
------------------------------------------------------------
 Error: The dipole correction needs vacuum z-level to be defined
 Vacuum level will be determined automatically.
 Determine position of vacuum level automatically
 **WARNING** : This feature is experimental and still requires some testing
 **PLEASE ** : If you see it fail, please report.
 Vacuum level determined:
 set_vacuum_level    0.00523 Bohr
  After read_input_data [GB]:    183.56

  Performing system and environment tests:
  | Environment variable OMP_NUM_THREADS correctly set to 1.
  | Checking for ScaLAPACK...
  | Testing pdtran()...
  | All pdtran() tests passed.
  After prepare_system [GB]:    183.42

------------------------------------------------------------
          Preparing all fixed parts of the calculation.
------------------------------------------------------------
  Determining machine precision:
    2.225073858507201E-308
  Setting up grids for atomic and cluster calculations.

  Creating wave function, potential, and density for free atoms.
  Runtime choices for atomic solver:
  | atomic solver xc        : PBE
  | compute density gradient: 1
  | compute kinetic density : F

  Species: C

  List of occupied orbitals and eigenvalues:
    n    l              occ      energy [Ha]    energy [eV]
    1    0           2.0000       -10.046810      -273.3876
    2    0           2.0000        -0.503128       -13.6908
    2    1           2.0000        -0.191849        -5.2205


  Adding cutoff potential to free-atom effective potential.
  Creating fixed part of basis set: Ionic, confined, hydrogenic.
 
  C                    hydrogenic:
 
  List of hydrogenic basis orbitals: 
    n    l      effective z      eigenvalue [eV]  inner max. [A]     outer max. [A]     outer radius [A]   
    2    1         1.700000        -9.7616           1.230570           1.230570           4.607917
    3    2         6.000000       -54.4224           0.792453           0.792453           3.883070
    2    0         4.900000       -81.6679           0.082559           0.562749           3.078220
 
  Creating atomic-like basis functions for current effective potential.

  Species C                   :

  List of atomic basis orbitals and eigenvalues:
    n    l      energy [Ha]    energy [eV]    outer radius [A]
    1    0       -10.046810      -273.3876       1.934409
    2    0        -0.503128       -13.6908       4.496620
    2    1        -0.191849        -5.2205       4.551928

  Assembling full basis from fixed parts.
  | Species C :   atomic orbital   1 s accepted.
  | Species C :    hydro orbital   2 s accepted.
  | Species C :   atomic orbital   2 s accepted.
  | Species C :   atomic orbital   2 p accepted.
  | Species C :    hydro orbital   2 p accepted.
  | Species C :    hydro orbital   3 d accepted.
 
  Basis size parameters after reduction:
  | Total number of radial functions:        6
  | Total number of basis functions :      504
 
  Per-task memory consumption for arrays in subroutine allocate_ext:
  |           1.973060MB.
  Testing on-site integration grid accuracy.
  |  Species  Function  <phi|h_atom|phi> (log., in eV)  <phi|h_atom|phi> (rad., in eV)
           1        1               -273.3876219248               -273.3875919908
           1        2                -10.7204647119                -10.7200987605
           1        3                 17.5782951162                 17.5752355731
           1        4                 -5.2222267983                 -5.2237454471
           1        5                  8.6866956284                  8.6634852736
           1        6                 27.4984676161                 27.4985577266

  Preparing densities etc. for the partition functions (integrals / Hartree potential).

  Preparations completed.
  max(cpu_time)          :      0.114 s.
  Wall clock time (cpu1) :      0.430 s.
------------------------------------------------------------
  After prepare_scf [GB]:    183.16

  Initializing index lists of integration centers etc. from given atomic structure:
  Mapping all atomic coordinates to central unit cell.

  Initializing the k-points
  Using symmetry for reducing the k-points
  | k-points reduced from:       64 to       34
  | Number of k-points                             :        34
  The eigenvectors in the calculations are COMPLEX.
  | Number of basis functions in the Hamiltonian integrals :      4821
  | Number of basis functions in a single unit cell        :       504
  | Number of centers in hartree potential         :      1962
  | Number of centers in hartree multipole         :       940
  | Number of centers in electron density summation:       756
  | Number of centers in basis integrals           :       769
  | Number of centers in integrals                 :       415
  | Number of centers in hamiltonian               :       756
  | Consuming         28 KiB for k_phase.
  | Number of super-cells (origin) [n_cells]                     :         243
  | Number of super-cells (after PM_index) [n_cells]             :          54
  | Number of super-cells in hamiltonian [n_cells_in_hamiltonian]:          54
  | Size of matrix packed + index [n_hamiltonian_matrix_size] :      555443
  After initialize_bc_dependent_lists [GB]:    182.96

------------------------------------------------------------
          Begin self-consistency loop: Initialization.

          Date     :  20240624, Time     :  140629.571
------------------------------------------------------------
  Available memory per node after initialize_hartree_non_periodic_ewald [GB]:    182.96
  | Estimated reciprocal-space cutoff momentum G_max:         1.84432723 bohr^-1 .
  | Reciprocal lattice points for long-range Hartree potential:    3248
  Available memory per node after initialize_recip_hartree_potential [GB]:    182.96
  Using simple linear distribution as default method for k-point parallelism.
  * Using 80 tasks for Scalapack Eigenvalue solver.
  Detailed listing of tasks and assigned k-points:
   Task     0 k-point     1 on co6520
   Task     1 k-point     1 on co6520
   Task     2 k-point     1 on co6520
   Task     3 k-point     2 on co6520
   Task     4 k-point     2 on co6520
   Task     5 k-point     3 on co6520
   Task     6 k-point     3 on co6520
   Task     7 k-point     3 on co6520
   Task     8 k-point     4 on co6520
   Task     9 k-point     4 on co6520
   Task    10 k-point     5 on co6520
   Task    11 k-point     5 on co6520
   Task    12 k-point     6 on co6520
   Task    13 k-point     6 on co6520
   Task    14 k-point     6 on co6520
   Task    15 k-point     7 on co6520
   Task    16 k-point     7 on co6520
   Task    17 k-point     8 on co6520
   Task    18 k-point     8 on co6520
   Task    19 k-point     9 on co6520
   Task    20 k-point     9 on co6520
   Task    21 k-point     9 on co6520
   Task    22 k-point    10 on co6520
   Task    23 k-point    10 on co6520
   Task    24 k-point    11 on co6520
   Task    25 k-point    11 on co6520
   Task    26 k-point    12 on co6520
   Task    27 k-point    12 on co6520
   Task    28 k-point    12 on co6520
   Task    29 k-point    13 on co6520
   Task    30 k-point    13 on co6520
   Task    31 k-point    14 on co6520
   Task    32 k-point    14 on co6520
   Task    33 k-point    15 on co6520
   Task    34 k-point    15 on co6520
   Task    35 k-point    15 on co6520
   Task    36 k-point    16 on co6520
   Task    37 k-point    16 on co6520
   Task    38 k-point    17 on co6520
   Task    39 k-point    17 on co6520
   Task    40 k-point    18 on co6626
   Task    41 k-point    18 on co6626
   Task    42 k-point    18 on co6626
   Task    43 k-point    19 on co6626
   Task    44 k-point    19 on co6626
   Task    45 k-point    20 on co6626
   Task    46 k-point    20 on co6626
   Task    47 k-point    20 on co6626
   Task    48 k-point    21 on co6626
   Task    49 k-point    21 on co6626
   Task    50 k-point    22 on co6626
   Task    51 k-point    22 on co6626
   Task    52 k-point    23 on co6626
   Task    53 k-point    23 on co6626
   Task    54 k-point    23 on co6626
   Task    55 k-point    24 on co6626
   Task    56 k-point    24 on co6626
   Task    57 k-point    25 on co6626
   Task    58 k-point    25 on co6626
   Task    59 k-point    26 on co6626
   Task    60 k-point    26 on co6626
   Task    61 k-point    26 on co6626
   Task    62 k-point    27 on co6626
   Task    63 k-point    27 on co6626
   Task    64 k-point    28 on co6626
   Task    65 k-point    28 on co6626
   Task    66 k-point    29 on co6626
   Task    67 k-point    29 on co6626
   Task    68 k-point    29 on co6626
   Task    69 k-point    30 on co6626
   Task    70 k-point    30 on co6626
   Task    71 k-point    31 on co6626
   Task    72 k-point    31 on co6626
   Task    73 k-point    32 on co6626
   Task    74 k-point    32 on co6626
   Task    75 k-point    32 on co6626
   Task    76 k-point    33 on co6626
   Task    77 k-point    33 on co6626
   Task    78 k-point    34 on co6626
   Task    79 k-point    34 on co6626
  K-point:     1 Tasks:     3 split into      3 X      1 BLACS grid
  Calculating block size based on n_basis =          504  max_nprow =            3  max_npcol =            1
  ScaLAPACK block size set to:           16
  Allocating        1.354 MB for ovlp_complex
  Allocating        1.354 MB for ham_complex
  Allocating        1.354 MB for eigenvec_complex
  Required Scalapack workspace - INTEGER:            1  REAL:             1  COMPLEX:            1
  Available memory per node after initialize_scalapack [GB]:    182.84
  Available memory per node after aims_elsi_init_scf [GB]:    182.84
  Available memory per node after initialize_fixed_grids [GB]:    182.84
  Partitioning the integration grid into batches with parallel hashing+maxmin method.
  | Number of batches:     2528
  | Maximal batch size:     163
  | Minimal batch size:      54
  | Average batch size:      81.968
  | Standard deviation of batch sizes:      25.044

  Integration load balanced across    80 MPI tasks.
  Work distribution over tasks is as follows:
  Task     0 has       2590 integration points.
  Task     1 has       2598 integration points.
  Task     2 has       2577 integration points.
  Task     3 has       2597 integration points.
  Task     4 has       2593 integration points.
  Task     5 has       2587 integration points.
  Task     6 has       2607 integration points.
  Task     7 has       2589 integration points.
  Task     8 has       2592 integration points.
  Task     9 has       2604 integration points.
  Task    10 has       2597 integration points.
  Task    11 has       2585 integration points.
  Task    12 has       2609 integration points.
  Task    13 has       2593 integration points.
  Task    14 has       2628 integration points.
  Task    15 has       2581 integration points.
  Task    16 has       2583 integration points.
  Task    17 has       2579 integration points.
  Task    18 has       2615 integration points.
  Task    19 has       2585 integration points.
  Task    20 has       2596 integration points.
  Task    21 has       2592 integration points.
  Task    22 has       2587 integration points.
  Task    23 has       2592 integration points.
  Task    24 has       2588 integration points.
  Task    25 has       2591 integration points.
  Task    26 has       2584 integration points.
  Task    27 has       2600 integration points.
  Task    28 has       2589 integration points.
  Task    29 has       2596 integration points.
  Task    30 has       2594 integration points.
  Task    31 has       2583 integration points.
  Task    32 has       2579 integration points.
  Task    33 has       2594 integration points.
  Task    34 has       2585 integration points.
  Task    35 has       2581 integration points.
  Task    36 has       2563 integration points.
  Task    37 has       2614 integration points.
  Task    38 has       2598 integration points.
  Task    39 has       2594 integration points.
  Task    40 has       2588 integration points.
  Task    41 has       2621 integration points.
  Task    42 has       2586 integration points.
  Task    43 has       2591 integration points.
  Task    44 has       2581 integration points.
  Task    45 has       2618 integration points.
  Task    46 has       2588 integration points.
  Task    47 has       2575 integration points.
  Task    48 has       2593 integration points.
  Task    49 has       2604 integration points.
  Task    50 has       2579 integration points.
  Task    51 has       2595 integration points.
  Task    52 has       2611 integration points.
  Task    53 has       2582 integration points.
  Task    54 has       2597 integration points.
  Task    55 has       2585 integration points.
  Task    56 has       2576 integration points.
  Task    57 has       2601 integration points.
  Task    58 has       2598 integration points.
  Task    59 has       2570 integration points.
  Task    60 has       2586 integration points.
  Task    61 has       2598 integration points.
  Task    62 has       2564 integration points.
  Task    63 has       2589 integration points.
  Task    64 has       2603 integration points.
  Task    65 has       2589 integration points.
  Task    66 has       2578 integration points.
  Task    67 has       2571 integration points.
  Task    68 has       2575 integration points.
  Task    69 has       2587 integration points.
  Task    70 has       2586 integration points.
  Task    71 has       2581 integration points.
  Task    72 has       2590 integration points.
  Task    73 has       2584 integration points.
  Task    74 has       2601 integration points.
  Task    75 has       2588 integration points.
  Task    76 has       2581 integration points.
  Task    77 has       2579 integration points.
  Task    78 has       2590 integration points.
  Task    79 has       2568 integration points.
  Available memory per node after partition_grid [GB]:    182.82
  Initializing partition tables, free-atom densities, potentials, etc. across the integration grid (initialize_grid_storage).
  | initialize_grid_storage: Actual outermost partition radius vs. multipole_radius_free
  | (-- VB: in principle, multipole_radius_free should be larger, hence this output)
  | Species        1: Confinement radius =              4.999999999999999 AA, multipole_radius_free =              5.019602836301480 AA.
  | Species        1: outer_partition_radius set to              5.019602836301480 AA .
  | The sparse table of interatomic distances needs       1423.76 kbyte instead of      4730.89 kbyte of memory.
  | Net number of integration points:   207216
  | of which are non-zero points    :   168241
  | Numerical average free-atom electrostatic potential    :     -0.93190961 eV
  Available memory per node after initialize_grid_storage_p1 [GB]:    182.71
  Renormalizing the initial density to the exact electron count on the 3D integration grid.
  | Initial density: Formal number of electrons (from input files) :     216.0000000000
  | Integrated number of electrons on 3D grid     :     216.0043554377
  | Charge integration error                      :       0.0043554377
  | Normalization factor for density and gradient :       0.9999798363
  Renormalizing the free-atom superposition density to the exact electron count on the 3D integration grid.
  | Formal number of electrons (from input files) :     216.0000000000
  | Integrated number of electrons on 3D grid     :     216.0043554377
  | Charge integration error                      :       0.0043554377
  | Normalization factor for density and gradient :       0.9999798363
  Obtaining max. number of non-zero basis functions in each batch (get_n_compute_maxes).
  | Maximal number of non-zero basis functions:      625 in task     0
  | Maximal number of non-zero basis functions:      618 in task     1
  | Maximal number of non-zero basis functions:      632 in task     2
  | Maximal number of non-zero basis functions:      637 in task     3
  | Maximal number of non-zero basis functions:      625 in task     4
  | Maximal number of non-zero basis functions:      616 in task     5
  | Maximal number of non-zero basis functions:      624 in task     6
  | Maximal number of non-zero basis functions:      605 in task     7
  | Maximal number of non-zero basis functions:      639 in task     8
  | Maximal number of non-zero basis functions:      626 in task     9
  | Maximal number of non-zero basis functions:      609 in task    10
  | Maximal number of non-zero basis functions:      621 in task    11
  | Maximal number of non-zero basis functions:      609 in task    12
  | Maximal number of non-zero basis functions:      641 in task    13
  | Maximal number of non-zero basis functions:      638 in task    14
  | Maximal number of non-zero basis functions:      608 in task    15
  | Maximal number of non-zero basis functions:      641 in task    16
  | Maximal number of non-zero basis functions:      639 in task    17
  | Maximal number of non-zero basis functions:      628 in task    18
  | Maximal number of non-zero basis functions:      624 in task    19
  | Maximal number of non-zero basis functions:      634 in task    20
  | Maximal number of non-zero basis functions:      631 in task    21
  | Maximal number of non-zero basis functions:      619 in task    22
  | Maximal number of non-zero basis functions:      643 in task    23
  | Maximal number of non-zero basis functions:      627 in task    24
  | Maximal number of non-zero basis functions:      618 in task    25
  | Maximal number of non-zero basis functions:      636 in task    26
  | Maximal number of non-zero basis functions:      601 in task    27
  | Maximal number of non-zero basis functions:      639 in task    28
  | Maximal number of non-zero basis functions:      609 in task    29
  | Maximal number of non-zero basis functions:      627 in task    30
  | Maximal number of non-zero basis functions:      625 in task    31
  | Maximal number of non-zero basis functions:      621 in task    32
  | Maximal number of non-zero basis functions:      636 in task    33
  | Maximal number of non-zero basis functions:      622 in task    34
  | Maximal number of non-zero basis functions:      607 in task    35
  | Maximal number of non-zero basis functions:      623 in task    36
  | Maximal number of non-zero basis functions:      612 in task    37
  | Maximal number of non-zero basis functions:      625 in task    38
  | Maximal number of non-zero basis functions:      613 in task    39
  | Maximal number of non-zero basis functions:      623 in task    40
  | Maximal number of non-zero basis functions:      617 in task    41
  | Maximal number of non-zero basis functions:      642 in task    42
  | Maximal number of non-zero basis functions:      632 in task    43
  | Maximal number of non-zero basis functions:      625 in task    44
  | Maximal number of non-zero basis functions:      621 in task    45
  | Maximal number of non-zero basis functions:      615 in task    46
  | Maximal number of non-zero basis functions:      620 in task    47
  | Maximal number of non-zero basis functions:      641 in task    48
  | Maximal number of non-zero basis functions:      628 in task    49
  | Maximal number of non-zero basis functions:      621 in task    50
  | Maximal number of non-zero basis functions:      626 in task    51
  | Maximal number of non-zero basis functions:      604 in task    52
  | Maximal number of non-zero basis functions:      633 in task    53
  | Maximal number of non-zero basis functions:      631 in task    54
  | Maximal number of non-zero basis functions:      610 in task    55
  | Maximal number of non-zero basis functions:      599 in task    56
  | Maximal number of non-zero basis functions:      627 in task    57
  | Maximal number of non-zero basis functions:      636 in task    58
  | Maximal number of non-zero basis functions:      607 in task    59
  | Maximal number of non-zero basis functions:      619 in task    60
  | Maximal number of non-zero basis functions:      626 in task    61
  | Maximal number of non-zero basis functions:      634 in task    62
  | Maximal number of non-zero basis functions:      641 in task    63
  | Maximal number of non-zero basis functions:      633 in task    64
  | Maximal number of non-zero basis functions:      608 in task    65
  | Maximal number of non-zero basis functions:      588 in task    66
  | Maximal number of non-zero basis functions:      610 in task    67
  | Maximal number of non-zero basis functions:      620 in task    68
  | Maximal number of non-zero basis functions:      632 in task    69
  | Maximal number of non-zero basis functions:      610 in task    70
  | Maximal number of non-zero basis functions:      596 in task    71
  | Maximal number of non-zero basis functions:      625 in task    72
  | Maximal number of non-zero basis functions:      640 in task    73
  | Maximal number of non-zero basis functions:      621 in task    74
  | Maximal number of non-zero basis functions:      626 in task    75
  | Maximal number of non-zero basis functions:      625 in task    76
  | Maximal number of non-zero basis functions:      621 in task    77
  | Maximal number of non-zero basis functions:      612 in task    78
  | Maximal number of non-zero basis functions:      624 in task    79
  Available memory per node after get_n_compute_maxes_p1 [GB]:    182.60
  Available memory per node after allocate_matrices [GB]:    182.60
  Available memory per node after init_comm_sparse_local_matrix_scalapack [GB]:    182.60
  Integrating Hamiltonian matrix: batch-based integration.
  Time summed over all CPUs for integration: real work       24.485 s, elapsed       35.060 s => Consider using load balancing!
  Available memory per node after integrate hamiltonian matrix [GB]:    181.82
  Integrating overlap matrix.
  Time summed over all CPUs for integration: real work        9.732 s, elapsed       12.472 s
  Available memory per node after integrate ovlp matrix [GB]:    181.57
  Available memory per node after ASI_callbacks invoke [GB]:    181.57
  Deallocating overlap matrix.
  Available memory per node after save_overlap_scalapack [GB]:    181.57

  Updating Kohn-Sham eigenvalues and eigenvectors using ELSI and the ELPA eigensolver.
  Singularity check in k-point 1 (analysis for other k-points may follow below):
  Overlap matrix is not singular
  | Lowest and highest eigenvalues :  0.6622E-03,  0.9909E+01
  Finished singularity check of overlap matrix
  | Time :     0.105 s
  Starting ELPA eigensolver
  Finished Cholesky decomposition
  | Time :     0.227 s
  Finished transformation to standard eigenproblem
  | Time :     0.023 s
  Finished solving standard eigenproblem
  | Time :     0.076 s
  Finished back-transformation of eigenvectors
  | Time :     0.007 s

  Obtaining occupation numbers and electronic chemical potential using ELSI.
  | Note that, for insulating systems, the printed 'chemical potential' value is not uniquely defined.
  | It can be anywhere in the energy gap, as long as it correctly separates occupied and unoccupied states.
  | In systems with a gap, the physically relevant chemical potential is the VBM or HOMO.

  | Chemical potential (Fermi level):    -8.06866681 eV
  Available memory per node after advance_KS_solution [GB]:    181.32
  Writing Kohn-Sham eigenvalues.
  K-point:       1 at    0.000000    0.000000    0.000000 (in units of recip. lattice)

  State    Occupation    Eigenvalue [Ha]    Eigenvalue [eV]
      1       2.00000         -10.184795         -277.14236
      2       2.00000         -10.174536         -276.86322
      3       2.00000         -10.169113         -276.71565
      4       2.00000         -10.168094         -276.68791
      5       2.00000         -10.167817         -276.68038
      6       2.00000         -10.165972         -276.63019
      7       2.00000         -10.164076         -276.57858
      8       2.00000         -10.163634         -276.56655
      9       2.00000         -10.163346         -276.55871
     10       2.00000         -10.163059         -276.55091
     11       2.00000         -10.162161         -276.52648
     12       2.00000         -10.161946         -276.52063
     13       2.00000         -10.161862         -276.51835
     14       2.00000         -10.161790         -276.51636
     15       2.00000         -10.161623         -276.51182
     16       2.00000         -10.161370         -276.50494
     17       2.00000         -10.161236         -276.50129
     18       2.00000         -10.160730         -276.48752
     19       2.00000         -10.160250         -276.47448
     20       2.00000         -10.159168         -276.44502
     21       2.00000         -10.158891         -276.43749
     22       2.00000         -10.158693         -276.43211
     23       2.00000         -10.157526         -276.40035
     24       2.00000         -10.157393         -276.39673
     25       2.00000         -10.157049         -276.38736
     26       2.00000         -10.156889         -276.38302
     27       2.00000         -10.155026         -276.33232
     28       2.00000         -10.154781         -276.32566
     29       2.00000         -10.152177         -276.25480
     30       2.00000         -10.151970         -276.24915
     31       2.00000         -10.151824         -276.24520
     32       2.00000         -10.151698         -276.24176
     33       2.00000         -10.150671         -276.21382
     34       2.00000         -10.150252         -276.20242
     35       2.00000         -10.150113         -276.19863
     36       2.00000         -10.145447         -276.07167
     37       2.00000          -1.045752          -28.45636
     38       2.00000          -1.040623          -28.31678
     39       2.00000          -0.974417          -26.51524
     40       2.00000          -0.959660          -26.11368
     41       2.00000          -0.958771          -26.08949
     42       2.00000          -0.956778          -26.03526
     43       2.00000          -0.955027          -25.98760
     44       2.00000          -0.952159          -25.90955
     45       2.00000          -0.951188          -25.88313
     46       2.00000          -0.948413          -25.80762
     47       2.00000          -0.941729          -25.62575
     48       2.00000          -0.938769          -25.54519
     49       2.00000          -0.937407          -25.50814
     50       2.00000          -0.927875          -25.24877
     51       2.00000          -0.813851          -22.14601
     52       2.00000          -0.807145          -21.96353
     53       2.00000          -0.805356          -21.91486
     54       2.00000          -0.802715          -21.84298
     55       2.00000          -0.797744          -21.70772
     56       2.00000          -0.790233          -21.50335
     57       2.00000          -0.784121          -21.33701
     58       2.00000          -0.778369          -21.18051
     59       2.00000          -0.722829          -19.66917
     60       2.00000          -0.722502          -19.66027
     61       2.00000          -0.721726          -19.63917
     62       2.00000          -0.717246          -19.51724
     63       2.00000          -0.701675          -19.09354
     64       2.00000          -0.700768          -19.06885
     65       2.00000          -0.699417          -19.03212
     66       2.00000          -0.698256          -19.00050
     67       2.00000          -0.695295          -18.91994
     68       2.00000          -0.691525          -18.81735
     69       2.00000          -0.685196          -18.64513
     70       2.00000          -0.684272          -18.61997
     71       2.00000          -0.681463          -18.54354
     72       2.00000          -0.678400          -18.46021
     73       2.00000          -0.671967          -18.28516
     74       2.00000          -0.667877          -18.17387
     75       2.00000          -0.585827          -15.94116
     76       2.00000          -0.576798          -15.69548
     77       2.00000          -0.575292          -15.65448
     78       2.00000          -0.564619          -15.36406
     79       2.00000          -0.562710          -15.31211
     80       2.00000          -0.556041          -15.13065
     81       2.00000          -0.554425          -15.08667
     82       2.00000          -0.552077          -15.02278
     83       2.00000          -0.550022          -14.96685
     84       2.00000          -0.549908          -14.96376
     85       2.00000          -0.543743          -14.79601
     86       2.00000          -0.541420          -14.73280
     87       2.00000          -0.536452          -14.59759
     88       2.00000          -0.534622          -14.54780
     89       2.00000          -0.483077          -13.14518
     90       2.00000          -0.478422          -13.01853
     91       2.00000          -0.475447          -12.93757
     92       2.00000          -0.472633          -12.86101
     93       2.00000          -0.471469          -12.82932
     94       2.00000          -0.467446          -12.71986
     95       2.00000          -0.466688          -12.69923
     96       2.00000          -0.460011          -12.51754
     97       2.00000          -0.454185          -12.35901
     98       2.00000          -0.453495          -12.34023
     99       2.00000          -0.451446          -12.28447
    100       2.00000          -0.449167          -12.22245
    101       2.00000          -0.442234          -12.03379
    102       2.00000          -0.437627          -11.90844
    103       2.00000          -0.435062          -11.83864
    104       2.00000          -0.433897          -11.80695
    105       2.00000          -0.312510           -8.50384
    106       2.00000          -0.309876           -8.43216
    107       2.00000          -0.304005           -8.27238
    108       2.00000          -0.301183           -8.19560
    109       0.00000          -0.292113           -7.94880
    110       0.00000          -0.287365           -7.81960
    111       0.00000          -0.283023           -7.70144
    112       0.00000          -0.276948           -7.53615
    113       0.00000          -0.132952           -3.61780
    114       0.00000          -0.130436           -3.54934
    115       0.00000          -0.126788           -3.45008
    116       0.00000          -0.124815           -3.39640
    117       0.00000          -0.123703           -3.36612
    118       0.00000          -0.121057           -3.29412
    119       0.00000          -0.115266           -3.13656
    120       0.00000          -0.113769           -3.09580
    121       0.00000          -0.110733           -3.01321
    122       0.00000          -0.108787           -2.96025
    123       0.00000          -0.102533           -2.79007
    124       0.00000          -0.100318           -2.72979
    125       0.00000          -0.068277           -1.85792
    126       0.00000          -0.060089           -1.63511
    127       0.00000          -0.053299           -1.45034
    128       0.00000          -0.044043           -1.19847
    129       0.00000          -0.040045           -1.08967
    130       0.00000          -0.037354           -1.01645
    131       0.00000          -0.032218           -0.87671
    132       0.00000          -0.031134           -0.84721
    133       0.00000          -0.030028           -0.81710
    134       0.00000          -0.023378           -0.63616
    135       0.00000          -0.022380           -0.60899
    136       0.00000          -0.017213           -0.46840
    137       0.00000          -0.012794           -0.34814
    138       0.00000           0.000526            0.01433
    139       0.00000           0.007273            0.19790
    140       0.00000           0.008953            0.24362
    141       0.00000           0.084657            2.30363
    142       0.00000           0.097439            2.65146
    143       0.00000           0.100518            2.73523
    144       0.00000           0.110419            3.00465
    145       0.00000           0.113827            3.09740
    146       0.00000           0.115491            3.14268
    147       0.00000           0.118852            3.23412
    148       0.00000           0.119603            3.25457
    149       0.00000           0.126310            3.43706
    150       0.00000           0.131647            3.58230
    151       0.00000           0.137873            3.75172
    152       0.00000           0.141853            3.86002
    153       0.00000           0.180820            4.92035
    154       0.00000           0.188857            5.13907
    155       0.00000           0.195541            5.32095
    156       0.00000           0.197661            5.37863
    157       0.00000           0.203695            5.54282
    158       0.00000           0.210888            5.73855
    159       0.00000           0.211632            5.75881
    160       0.00000           0.214337            5.83241
    161       0.00000           0.216337            5.88682
    162       0.00000           0.217079            5.90701
    163       0.00000           0.219033            5.96020
    164       0.00000           0.219816            5.98150
    165       0.00000           0.221312            6.02220
    166       0.00000           0.228577            6.21990
    167       0.00000           0.238784            6.49764
    168       0.00000           0.240307            6.53909
    169       0.00000           0.241765            6.57876
    170       0.00000           0.242412            6.59637
    171       0.00000           0.245510            6.68067
    172       0.00000           0.250280            6.81047
    173       0.00000           0.252858            6.88062
    174       0.00000           0.267847            7.28849
    175       0.00000           0.268478            7.30567
    176       0.00000           0.268684            7.31128
    177       0.00000           0.269085            7.32218
    178       0.00000           0.271471            7.38710
    179       0.00000           0.273353            7.43830
    180       0.00000           0.273448            7.44090
    181       0.00000           0.275135            7.48680
    182       0.00000           0.276006            7.51049
    183       0.00000           0.280491            7.63254
    184       0.00000           0.287346            7.81907
    185       0.00000           0.288575            7.85252
    186       0.00000           0.289512            7.87803
    187       0.00000           0.290398            7.90214
    188       0.00000           0.292381            7.95610
    189       0.00000           0.297733            8.10173
    190       0.00000           0.302569            8.23332
    191       0.00000           0.305011            8.29978
    192       0.00000           0.307207            8.35953
    193       0.00000           0.313503            8.53085
    194       0.00000           0.317141            8.62985
    195       0.00000           0.318464            8.66584
    196       0.00000           0.328281            8.93299
    197       0.00000           0.328663            8.94337
    198       0.00000           0.335400            9.12669
    199       0.00000           0.339060            9.22630
    200       0.00000           0.349520            9.51093
    201       0.00000           0.355580            9.67581
    202       0.00000           0.393213           10.69987
    203       0.00000           0.399149           10.86139
    204       0.00000           0.400913           10.90939
    205       0.00000           0.410567           11.17209
    206       0.00000           0.481487           13.10192
    207       0.00000           0.488180           13.28405
    208       0.00000           0.530356           14.43172
    209       0.00000           0.541128           14.72484
    210       0.00000           0.548424           14.92338
    211       0.00000           0.553834           15.07058
    212       0.00000           0.559139           15.21494
    213       0.00000           0.564599           15.36353
    214       0.00000           0.567682           15.44742
    215       0.00000           0.571390           15.54833
    216       0.00000           0.575668           15.66472

  What follows are estimated values for band gap, HOMO, LUMO, etc.
  | They are estimated on a discrete k-point grid and not necessarily exact.
  | For converged numbers, create a DOS and/or band structure plot on a denser k-grid.

  Highest occupied state (VBM) at     -8.19560006 eV (relative to internal zero)
  | Occupation number:      2.00000000
  | K-point:       1 at    0.000000    0.000000    0.000000 (in units of recip. lattice)

  Lowest unoccupied state (CBM) at    -7.94879862 eV (relative to internal zero)
  | Occupation number:      0.00000000
  | K-point:       1 at    0.000000    0.000000    0.000000 (in units of recip. lattice)

  ESTIMATED overall HOMO-LUMO gap:      0.24680144 eV between HOMO at k-point 1 and LUMO at k-point 1
  | This appears to be a direct band gap.
  The gap value is above 0.2 eV. Unless you are using a very sparse k-point grid,
  this system is most likely an insulator or a semiconductor.
  Calculating total energy contributions from superposition of free atom densities.

  Total energy components:
  | Sum of eigenvalues            :        -826.49079755 Ha      -22489.95887791 eV
  | XC energy correction          :        -192.67100279 Ha       -5242.84473894 eV
  | XC potential correction       :         247.52666027 Ha        6735.54312661 eV
  | Free-atom electrostatic energy:        -600.93454913 Ha      -16352.26107579 eV
  | Hartree energy correction     :           0.00000000 Ha           0.00000000 eV
  | Entropy correction            :          -0.00000000 Ha          -0.00000000 eV
  | ---------------------------
  | Total energy                  :       -1372.56968921 Ha      -37349.52156603 eV
  | Total energy, T -> 0          :       -1372.56968921 Ha      -37349.52156603 eV  <-- do not rely on this value for anything but (periodic) metals
  | Electronic free energy        :       -1372.56968921 Ha      -37349.52156603 eV

  Derived energy quantities:
  | Kinetic energy                :        1367.37405100 Ha       37208.14105714 eV
  | Electrostatic energy          :       -2547.27273742 Ha      -69314.81788423 eV
  | Energy correction for multipole
  | error in Hartree potential    :           0.00000000 Ha           0.00000000 eV
  | Sum of eigenvalues per atom                           :        -624.72107994 eV
  | Total energy (T->0) per atom                          :       -1037.48671017 eV  <-- do not rely on this value for anything but (periodic) metals
  | Electronic free energy per atom                       :       -1037.48671017 eV
  Initialize hartree_potential_storage
  Max. number of atoms included in rho_multipole:           36

  End scf initialization - timings             :  max(cpu_time)    wall_clock(cpu1)
  | Time for scf. initialization                :        3.021 s           3.312 s
  | Boundary condition initialization           :        0.094 s           0.103 s
  | Integration                                 :        0.629 s           0.655 s
  | Solution of K.-S. eqns.                     :        0.887 s           1.022 s
  | Grid partitioning                           :        1.156 s           0.422 s
  | Preloading free-atom quantities on grid     :        0.271 s           0.308 s
  | Free-atom superposition energy              :        0.040 s           0.041 s
  | Total energy evaluation                     :        0.005 s           0.018 s

  Partial memory accounting:
  | Current value for overall tracked memory usage:
  |   Minimum:       10.115 MB (on task  2)
  |   Maximum:       12.330 MB (on task  3)
  |   Average:       11.365 MB
  | Peak value for overall tracked memory usage:
  |   Minimum:       19.416 MB (on task  7 after allocating wave)
  |   Maximum:       22.108 MB (on task 48 after allocating wave)
  |   Average:       20.904 MB
  | Largest tracked array allocation so far:
  |   Minimum:        4.238 MB (overlap_matrix on task  0)
  |   Maximum:        4.238 MB (overlap_matrix on task  0)
[...]
  | field radius: extent of its Coulomb potential
  | Species   l  charge radius    field radius  multipol momen
  |    C      0     2.562483 A      2.562483 A       -1.583929E-16 a.u.
  |    C      0     3.003870 A      3.003870 A       -3.256899E-17 a.u.
  |    C      0     3.003870 A      3.003870 A       -6.386108E-17 a.u.
  |    C      1     3.272245 A      3.272245 A       -2.948012E-18 a.u.
  |    C      0     3.312494 A      3.312494 A        2.293552E-17 a.u.
  |    C      3     4.077671 A      4.077671 A        2.287354E-16 a.u.
  |    C      3     4.077671 A      4.077671 A        3.174465E-15 a.u.
  |    C      1     4.496620 A      4.496620 A        3.752913E-17 a.u.
  |    C      0     4.496620 A      4.551928 A       -1.956803E-16 a.u.
  |    C      2     4.551928 A      4.551928 A       -1.060711E-15 a.u.
  |    C      2     4.551928 A      4.551928 A       -1.074847E-15 a.u.
  |    C      2     4.551928 A      4.551928 A        1.086695E-15 a.u.
  |    C      2     4.551928 A      4.551928 A       -1.541331E-15 a.u.
  |    C      0     4.551928 A      4.607917 A       -4.370174E-17 a.u.
  |    C      1     4.551928 A      4.607917 A       -3.454649E-16 a.u.
  |    C      1     4.551928 A      4.607917 A       -1.208922E-16 a.u.
  |    C      1     4.607917 A      4.607917 A        1.608496E-16 a.u.
  |    C      2     4.607917 A      4.607917 A        1.461836E-15 a.u.
  |    C      0     4.607917 A      4.664595 A       -7.810810E-17 a.u.
  |    C      4     3.835889 A  2.962973E+02 A            4.379483 a.u.
  |    C      3     4.127827 A  1.728650E+03 A            9.061794 a.u.
  |    C      2     4.607917 A  2.473843E+04 A            8.130235 a.u.
  |    C      1     4.607917 A  2.510990E+06 A            1.791752 a.u.
  |    C      0     4.607917 A  4.248117E+12 A            0.638830 a.u.

  | Shrink_full_auxil_basis : there are       24  radial auxiliary wave functions
                            accepted and      11 rejected.
  | Shrink_full_auxil_basis : there are totally                3096 partial auxiliary wave functions.
  | Largest number of auxiliary wave functions per atom:         86
 
  | Maximal number of product basis functions per thread :    48    48
 
  | Minimal total memory requirement for three-center overlap :       3.818 Gbs
  | Number of local auxiliary basis functions on task:      0    48
  | Number of local auxiliary basis functions on task:      1    48
  | Number of local auxiliary basis functions on task:      2    48
  | Number of local auxiliary basis functions on task:      3    48
  | Number of local auxiliary basis functions on task:      4    48
  | Number of local auxiliary basis functions on task:      5    48
  | Number of local auxiliary basis functions on task:      6    48
  | Number of local auxiliary basis functions on task:      7    48
  | Number of local auxiliary basis functions on task:      8    48
  | Number of local auxiliary basis functions on task:      9    48
  | Number of local auxiliary basis functions on task:     10    48
  | Number of local auxiliary basis functions on task:     11    48
  | Number of local auxiliary basis functions on task:     12    48
  | Number of local auxiliary basis functions on task:     13    48
  | Number of local auxiliary basis functions on task:     14    48
  | Number of local auxiliary basis functions on task:     15    48
  | Number of local auxiliary basis functions on task:     16    48
  | Number of local auxiliary basis functions on task:     17    48
  | Number of local auxiliary basis functions on task:     18    48
  | Number of local auxiliary basis functions on task:     19    48
  | Number of local auxiliary basis functions on task:     20    48
  | Number of local auxiliary basis functions on task:     21    48
  | Number of local auxiliary basis functions on task:     22    48
  | Number of local auxiliary basis functions on task:     23    48
  | Number of local auxiliary basis functions on task:     24    48
  | Number of local auxiliary basis functions on task:     25    48
  | Number of local auxiliary basis functions on task:     26    48
  | Number of local auxiliary basis functions on task:     27    48
  | Number of local auxiliary basis functions on task:     28    48
  | Number of local auxiliary basis functions on task:     29    48
  | Number of local auxiliary basis functions on task:     30    48
  | Number of local auxiliary basis functions on task:     31    48
  | Number of local auxiliary basis functions on task:     32    48
  | Number of local auxiliary basis functions on task:     33    40
  | Number of local auxiliary basis functions on task:     34    32
  | Number of local auxiliary basis functions on task:     35    32
  | Number of local auxiliary basis functions on task:     36    32
  | Number of local auxiliary basis functions on task:     37    32
  | Number of local auxiliary basis functions on task:     38    32
  | Number of local auxiliary basis functions on task:     39    32
  | Number of local auxiliary basis functions on task:     40    32
  | Number of local auxiliary basis functions on task:     41    32
  | Number of local auxiliary basis functions on task:     42    32
  | Number of local auxiliary basis functions on task:     43    32
  | Number of local auxiliary basis functions on task:     44    32
  | Number of local auxiliary basis functions on task:     45    32
  | Number of local auxiliary basis functions on task:     46    32
  | Number of local auxiliary basis functions on task:     47    32
  | Number of local auxiliary basis functions on task:     48    32
  | Number of local auxiliary basis functions on task:     49    32
  | Number of local auxiliary basis functions on task:     50    32
  | Number of local auxiliary basis functions on task:     51    32
  | Number of local auxiliary basis functions on task:     52    32
  | Number of local auxiliary basis functions on task:     53    32
  | Number of local auxiliary basis functions on task:     54    32
  | Number of local auxiliary basis functions on task:     55    32
  | Number of local auxiliary basis functions on task:     56    32
  | Number of local auxiliary basis functions on task:     57    32
  | Number of local auxiliary basis functions on task:     58    32
  | Number of local auxiliary basis functions on task:     59    32
  | Number of local auxiliary basis functions on task:     60    32
  | Number of local auxiliary basis functions on task:     61    32
  | Number of local auxiliary basis functions on task:     62    32
  | Number of local auxiliary basis functions on task:     63    32
  | Number of local auxiliary basis functions on task:     64    32
  | Number of local auxiliary basis functions on task:     65    32
  | Number of local auxiliary basis functions on task:     66    32
  | Number of local auxiliary basis functions on task:     67    32
  | Number of local auxiliary basis functions on task:     68    32
  | Number of local auxiliary basis functions on task:     69    32
  | Number of local auxiliary basis functions on task:     70    32
  | Number of local auxiliary basis functions on task:     71    32
  | Number of local auxiliary basis functions on task:     72    32
  | Number of local auxiliary basis functions on task:     73    32
  | Number of local auxiliary basis functions on task:     74    32
  | Number of local auxiliary basis functions on task:     75    32
  | Number of local auxiliary basis functions on task:     76    32
  | Number of local auxiliary basis functions on task:     77    32
  | Number of local auxiliary basis functions on task:     78    32
  | Number of local auxiliary basis functions on task:     79    32
  | 2D aux task distribution:      8 X     10
  | 2D block size (nb_aux_2d):     64
  Minimal free memory per node after shrink_svd_auxil [GB]:    180.66
  Minimal free memory per node after allocate_basis_pairs [GB]:    180.66
 
  Basis pair condensation :    127260  -->      62715

------------------------------------------------------------
  End self-consistency iteration #    13       :  max(cpu_time)    wall_clock(cpu1)
  | Time for this iteration                     :       36.114 s          36.196 s
  | Charge density update                       :        0.000 s           0.000 s
  | Density mixing                              :        0.289 s           0.290 s
  | Hartree multipole update                    :        0.002 s           0.002 s
  | Hartree multipole summation                 :        0.190 s           0.190 s
  | Integration                                 :        0.194 s           0.194 s
  | Solution of K.-S. eqns.                     :        0.153 s           0.153 s
  | Total energy evaluation                     :        0.001 s           0.001 s

  Partial memory accounting:
  | Current value for overall tracked memory usage:
  |   Minimum:       11.550 MB (on task 47)
  |   Maximum:       13.780 MB (on task 64)
  |   Average:       12.809 MB
  | Peak value for overall tracked memory usage:
  |   Minimum:       19.416 MB (on task  7 after allocating wave)
  |   Maximum:       22.108 MB (on task 48 after allocating wave)
  |   Average:       20.904 MB
  | Largest tracked array allocation so far:
  |   Minimum:        4.238 MB (overlap_matrix on task  0)
  |   Maximum:        4.238 MB (overlap_matrix on task  0)
  |   Average:        4.238 MB
  Note:  These values currently only include a subset of arrays which are explicitly tracked.
  The "true" memory usage will be greater.
------------------------------------------------------------

  Energy and forces in a compact form:
  | Total energy uncorrected      :         -0.373302693608213E+05 eV
  | Total energy corrected        :         -0.373302693608213E+05 eV  <-- do not rely on this value for anything but (periodic) metals
  | Electronic free energy        :         -0.373302693608213E+05 eV

  ------------------------------------ 
  Start decomposition of the XC Energy 
  ------------------------------------ 
  X and C from original XC functional choice 
  Hartree-Fock Energy :          0.000000000 Ha              0.000000000 eV
  X Energy            :       -187.112892255 Ha          -5091.600856057 eV
  C Energy            :         -7.563952369 Ha           -205.825616243 eV
  XC Energy w/o HF    :       -194.676844624 Ha          -5297.426472300 eV
  Total XC Energy     :       -194.676844624 Ha          -5297.426472300 eV
  ------------------------------------ 
  LDA X and C from self-consistent density 
  X Energy LDA        :       -169.798068282 Ha          -4620.440523369 eV
  C Energy LDA        :        -14.328075252 Ha           -389.886764840 eV
  ------------------------------------ 
  End decomposition of the XC Energy 
  ------------------------------------ 

------------------------------------------------------------

  | Chemical Potential                          :    -4.77685146 eV
  | Note that, for insulating systems, the printed 'chemical potential' value is not uniquely defined.
  | It can be anywhere in the energy gap, as long as it correctly separates occupied and unoccupied states.
  | In systems with a gap, the physically relevant chemical potential is the VBM or HOMO.

  Writing energy levels:
  | Potential vacuum level, "upper" slab surface    :    -0.13060461 eV
  | Potential vacuum level, "lower" slab surface    :    -0.14161018 eV
  | Work function ("upper" slab surface)            :     4.64624684 eV
  | Work function ("lower" slab surface)            :     4.63524127 eV
  *** Band gap may exist, work functions will also be defined using VBM and CBM.
  | VBM (reference: upper vacuum level)             :     4.74060538 eV
  | Work function ("upper" surface, reference: VBM) :     4.74060538 eV
  | Work function ("lower" surface, reference: VBM) :     4.72959981 eV
  | CBM (reference: upper vacuum level)             :     4.40933821 eV
  | Work function ("upper" surface, reference: CBM) :     4.40933821 eV
  | Work function ("lower" surface, reference: CBM) :     4.39833264 eV

------------------------------------------------------------------------------
  Final output of selected total energy values:

  The following output summarizes some interesting total energy values
  at the end of a run (AFTER all relaxation, molecular dynamics, etc.).

  | Total energy of the DFT / Hartree-Fock s.c.f. calculation      :         -37330.269360821 eV
  | Final zero-broadening corrected energy (caution - metals only) :         -37330.269360821 eV
  | For reference only, the value of 1 Hartree used in FHI-aims is :             27.211384500 eV
  | For reference only, the overall average (free atom contribution
  | + realspace contribution) of the electrostatic potential after
  | s.c.f. convergence is                                          :             -0.900212537 eV

  Before relying on these values, please be sure to understand exactly which
  total energy value is referred to by a given number. Different objects may
  all carry the same name 'total energy'. Definitions:

  Total energy of the DFT / Hartree-Fock s.c.f. calculation:
  | Note that this energy does not include ANY quantities calculated after the
  | s.c.f. cycle, in particular not ANY RPA, MP2, etc. many-body perturbation terms.

  Final zero-broadening corrected energy:
  | For metallic systems only, a broadening of the occupation numbers at the Fermi
  | level can be extrapolated back to zero broadening by an electron-gas inspired
  | formula. For all systems that are not real metals, this value can be
  | meaningless and should be avoided.

------------------------------------------------------------------------------
  Methods described in the following list of references were used in this FHI-aims run.
  If you publish the results, please make sure to cite these reference if they apply.
  FHI-aims is an academic code, and for our developers (often, Ph.D. students
  and postdocs), scientific credit in the community is essential.
  Thank you for helping us!

  For any use of FHI-aims, please cite:

    Volker Blum, Ralf Gehrke, Felix Hanke, Paula Havu, Ville Havu,
    Xinguo Ren, Karsten Reuter, and Matthias Scheffler
    'Ab initio molecular simulations with numeric atom-centered orbitals'
    Computer Physics Communications 180, 2175-2196 (2009)
    http://doi.org/10.1016/j.cpc.2009.06.022


  For Hartree-Fock, hybrid functionals, or many-body perturbation theory used in your run, please cite:

    Xinguo Ren, Patrick Rinke, Volker Blum, Juergen Wieferink, Alex Tkatchenko,
    Andrea Sanfilippo, Karsten Reuter, and Matthias Scheffler,
    'Resolution-of-identity approach to Hartree-Fock, hybrid density functionals,
    RPA, MP2, and GW with numeric atom-centered orbital basis functions'
    New Journal of Physics 14, 053020 (2012).
    http://doi.org/10.1088/1367-2630/14/5/053020


  The provided symmetry information was generated with SPGlib:

    Atsushi Togo, Yusuke Seto, Dimitar Pashov
    SPGlib 1.7.3 obtained from http://spglib.sourceforge.net
    Licence: New BSD license
    Copyright (C) 2008 Atsushi Togo


  The ELSI infrastructure was used in your run to solve the Kohn-Sham electronic structure.
  Please check out https://wordpress.elsi-interchange.org to learn more.
  If scalability is important for your project, please acknowledge ELSI by citing:

    V. W-z. Yu, F. Corsetti, A. Garcia, W. P. Huhn, M. Jacquelin, W. Jia,
    B. Lange, L. Lin, J. Lu, W. Mi, A. Seifitokaldani, A. Vazquez-Mayagoitia,
    C. Yang, H. Yang, and V. Blum
    'ELSI: A unified software interface for Kohn-Sham electronic structure solvers'
    Computer Physics Communications 222, 267-285 (2018).
    http://doi.org/10.1016/j.cpc.2017.09.007


  For the real-space grid partitioning and parallelization used in this calculation, please cite:

    Ville Havu, Volker Blum, Paula Havu, and Matthias Scheffler,
    'Efficient O(N) integration for all-electron electronic structure calculation'
    'using numerically tabulated basis functions'
    Journal of Computational Physics 228, 8367-8379 (2009).
    http://doi.org/10.1016/j.jcp.2009.08.008


  The high-level electronic structure method used in your calculation
  employed our efficient localized resolution of identity for the Coulomb operator.
  Some calculations, especially large-scale hybrid density functional theory,
  are only possible thanks to this development. For this feature, please cite:

    Arvid Ihrig, Juergen Wieferink, Igor Ying Zhang, Matti Ropo, Xinguo Ren,
    Patrick Rinke, Matthias Scheffler, and Volker Blum,
    'Accurate localized resolution of identity approach for linear-scaling
    hybrid density functionals and for many-body perturbation theory'
    New Journal of Physics 117, 093020 (2015).
    http://doi.org/10.1088/1367-2630/17/9/093020

  Of course, there are many other important community references, e.g., those cited in the
  above references. Our list is limited to references that describe implementations in the
  FHI-aims code. The reason is purely practical (length of this list) - please credit others as well.

------------------------------------------------------------
          Leaving FHI-aims.
          Date     :  20240624, Time     :  140723.513

          Computational steps:
          | Number of self-consistency cycles          :           13
          | Number of SCF (re)initializations          :            1

          Detailed time accounting                     :  max(cpu_time)    wall_clock(cpu1)
          | Total time                                  :       55.580 s          56.984 s
          | Preparation time                            :        0.114 s           0.430 s
          | Boundary condition initalization            :        0.094 s           0.103 s
          | Grid partitioning                           :        1.156 s           0.422 s
          | Preloading free-atom quantities on grid     :        0.271 s           0.308 s
          | Free-atom superposition energy              :        0.040 s           0.041 s
          | Total time for integrations                 :        3.154 s           3.183 s
          | Product basis setup: Total time             :        0.000 s           0.000 s
          | Product basis: | 2-center integrations     :(       0.000 s)  (       0.000 s)
          | Product basis: | LVL 3-center & coefficient:(       0.000 s)  (       0.000 s)
          | Total time for solution of K.-S. equations  :        2.899 s           3.037 s
          | Total time for density update               :        3.802 s           3.810 s
          | Total time for mixing & preconditioning     :        4.030 s           3.721 s
          | Total time for Hartree multipole update     :        0.048 s           0.050 s
          | Total time for Hartree multipole sum        :        2.517 s           2.556 s
          | Total time for total energy evaluation      :        0.017 s           0.037 s
          | Total time for scaled ZORA corrections      :        0.000 s           0.000 s

          Partial memory accounting:
          | Residual value for overall tracked memory usage across tasks:     0.000000 MB (should be 0.000000 MB)
          | Peak values for overall tracked memory usage:
          |   Minimum:       19.416 MB (on task  7 after allocating wave)
          |   Maximum:       22.108 MB (on task 48 after allocating wave)
          |   Average:       20.904 MB
          | Largest tracked array allocation:
          |   Minimum:        4.238 MB (overlap_matrix on task  0)
          |   Maximum:        4.238 MB (overlap_matrix on task  0)
          |   Average:        4.238 MB
          Note:  These values currently only include a subset of arrays which are explicitly tracked.
          The "true" memory usage will be greater.

          Have a nice day.
------------------------------------------------------------
