------------------------------------------------------------
          Invoking FHI-aims ...

          When using FHI-aims, please cite the following reference:

            Volker Blum, Ralf Gehrke, Felix Hanke, Paula Havu,
            Ville Havu, Xinguo Ren, Karsten Reuter, and Matthias Scheffler,
            'Ab Initio Molecular Simulations with Numeric Atom-Centered Orbitals',
            Computer Physics Communications 180, 2175-2196 (2009)

          In addition, many other developments in FHI-aims are likely important for
          your particular application. If so, please cite them. A partial list of references
          is written at the end of this file. Thank you for giving credit to the authors
          of these developments.

          For general information about FHI-aims please find us at

            https://fhi-aims.org

          Online tutorials can be found at

            https://fhi-aims-club.gitlab.io/tutorials/tutorials-overview/

          For any questions about FHI-aims, please visit our slack channel at

            https://fhi-aims.slack.com

          and our main development and support site at

            https://aims-git.rz-berlin.mpg.de .

          The latter site, in particular, has a wiki to collect information, as well
          as an issue tracker to log discussions, suggest improvements, and report issues
          or bugs. https://aims-git.rz-berlin.mpg.de is also the main development site
          of the project and all new and updated code versions can be obtained there.
          Please send an email to aims-coordinators@fhi-berlin.mpg.de and we will add
          you to these sites. They are for you and everyone is welcome there.

------------------------------------------------------------



  Date     :  20250819, Time     :  103024.048
  Time zero on CPU 1             :   0.318421000000000E+00  s.
  Internal wall clock time zero  :           524831424.048  s.

  FHI-aims created a unique identifier for this run for later identification
  aims_uuid : 50A1E13D-1A84-43D7-A593-06952F47A48E

  Build configuration of the current instance of FHI-aims
  -------------------------------------------------------
  FHI-aims version      : 241121
  Commit number         : 31ecdff5a
  CMake host system     : Linux-5.14.0-427.42.1.el9_4.x86_64
  CMake version         : 3.28.2
  Fortran compiler      : /mpcdf/soft/RHEL_9/packages/znver4/openmpi/intel_2024.0-2024.0.2/4.1.6/bin/mpif90 (IntelLLVM) version 2024.0.2
  Fortran compiler flags: -g -O3 -align array64byte
  C compiler            : /mpcdf/soft/RHEL_9/packages/x86_64/intel/2024.0.2/bin/icx (IntelLLVM) version 2024.0.2
  C compiler flags      : -O3 -fp-model=precise
  C++ compiler          : /mpcdf/soft/RHEL_9/packages/x86_64/intel/2024.0.2/bin/icpx (IntelLLVM) version 2024.0.2
  C++ compiler flags    : -O3 -fp-model=precise
  HIP compiler          :
  HIP compiler flags    :
  HIP GPU arch          :
  Using MPI
  Using ScaLAPACK
  Using LibXC
  Using i-PI
  Using RLSY
  Linking against: /mpcdf/soft/RHEL_9/packages/x86_64/intel_oneapi/2024.0/mkl/latest/lib/libmkl_intel_lp64.so
                   /mpcdf/soft/RHEL_9/packages/x86_64/intel_oneapi/2024.0/mkl/latest/lib/libmkl_sequential.so
                   /mpcdf/soft/RHEL_9/packages/x86_64/intel_oneapi/2024.0/mkl/latest/lib/libmkl_core.so
                   /mpcdf/soft/RHEL_9/packages/x86_64/intel_oneapi/2024.0/mkl/latest/lib/libmkl_blacs_openmpi_lp64.so
                   /mpcdf/soft/RHEL_9/packages/x86_64/intel_oneapi/2024.0/mkl/latest/lib/libmkl_scalapack_lp64.so
                   /usr/lib64/libpthread.a
                   /usr/lib64/libm.so
                   /usr/lib64/libdl.a

  Using      128 parallel tasks.
  Task        0 on host vipl2013 reporting.
  Task        1 on host vipl2013 reporting.
  Task        2 on host vipl2013 reporting.
  Task        3 on host vipl2013 reporting.
  Task        4 on host vipl2013 reporting.
  Task        5 on host vipl2013 reporting.
  Task        6 on host vipl2013 reporting.
  Task        7 on host vipl2013 reporting.
  Task        8 on host vipl2013 reporting.
  Task        9 on host vipl2013 reporting.
  Task       10 on host vipl2013 reporting.
  Task       11 on host vipl2013 reporting.
  Task       12 on host vipl2013 reporting.
  Task       13 on host vipl2013 reporting.
  Task       14 on host vipl2013 reporting.
  Task       15 on host vipl2013 reporting.
  Task       16 on host vipl2013 reporting.
  Task       17 on host vipl2013 reporting.
  Task       18 on host vipl2013 reporting.
  Task       19 on host vipl2013 reporting.
  Task       20 on host vipl2013 reporting.
  Task       21 on host vipl2013 reporting.
  Task       22 on host vipl2013 reporting.
  Task       23 on host vipl2013 reporting.
  Task       24 on host vipl2013 reporting.
  Task       25 on host vipl2013 reporting.
  Task       26 on host vipl2013 reporting.
  Task       27 on host vipl2013 reporting.
  Task       28 on host vipl2013 reporting.
  Task       29 on host vipl2013 reporting.
  Task       30 on host vipl2013 reporting.
  Task       31 on host vipl2013 reporting.
  Task       32 on host vipl2013 reporting.
  Task       33 on host vipl2013 reporting.
  Task       34 on host vipl2013 reporting.
  Task       35 on host vipl2013 reporting.
  Task       36 on host vipl2013 reporting.
  Task       37 on host vipl2013 reporting.
  Task       38 on host vipl2013 reporting.
  Task       39 on host vipl2013 reporting.
  Task       40 on host vipl2013 reporting.
  Task       41 on host vipl2013 reporting.
  Task       42 on host vipl2013 reporting.
  Task       43 on host vipl2013 reporting.
  Task       44 on host vipl2013 reporting.
  Task       45 on host vipl2013 reporting.
  Task       46 on host vipl2013 reporting.
  Task       47 on host vipl2013 reporting.
  Task       48 on host vipl2013 reporting.
  Task       49 on host vipl2013 reporting.
  Task       50 on host vipl2013 reporting.
  Task       51 on host vipl2013 reporting.
  Task       52 on host vipl2013 reporting.
  Task       53 on host vipl2013 reporting.
  Task       54 on host vipl2013 reporting.
  Task       55 on host vipl2013 reporting.
  Task       56 on host vipl2013 reporting.
  Task       57 on host vipl2013 reporting.
  Task       58 on host vipl2013 reporting.
  Task       59 on host vipl2013 reporting.
  Task       60 on host vipl2013 reporting.
  Task       61 on host vipl2013 reporting.
  Task       62 on host vipl2013 reporting.
  Task       63 on host vipl2013 reporting.
  Task       64 on host vipl2013 reporting.
  Task       65 on host vipl2013 reporting.
  Task       66 on host vipl2013 reporting.
  Task       67 on host vipl2013 reporting.
  Task       68 on host vipl2013 reporting.
  Task       69 on host vipl2013 reporting.
  Task       70 on host vipl2013 reporting.
  Task       71 on host vipl2013 reporting.
  Task       72 on host vipl2013 reporting.
  Task       73 on host vipl2013 reporting.
  Task       74 on host vipl2013 reporting.
  Task       75 on host vipl2013 reporting.
  Task       76 on host vipl2013 reporting.
  Task       77 on host vipl2013 reporting.
  Task       78 on host vipl2013 reporting.
  Task       79 on host vipl2013 reporting.
  Task       80 on host vipl2013 reporting.
  Task       81 on host vipl2013 reporting.
  Task       82 on host vipl2013 reporting.
  Task       83 on host vipl2013 reporting.
  Task       84 on host vipl2013 reporting.
  Task       85 on host vipl2013 reporting.
  Task       86 on host vipl2013 reporting.
  Task       87 on host vipl2013 reporting.
  Task       88 on host vipl2013 reporting.
  Task       89 on host vipl2013 reporting.
  Task       90 on host vipl2013 reporting.
  Task       91 on host vipl2013 reporting.
  Task       92 on host vipl2013 reporting.
  Task       93 on host vipl2013 reporting.
  Task       94 on host vipl2013 reporting.
  Task       95 on host vipl2013 reporting.
  Task       96 on host vipl2013 reporting.
  Task       97 on host vipl2013 reporting.
  Task       98 on host vipl2013 reporting.
  Task       99 on host vipl2013 reporting.
  Task      100 on host vipl2013 reporting.
  Task      101 on host vipl2013 reporting.
  Task      102 on host vipl2013 reporting.
  Task      103 on host vipl2013 reporting.
  Task      104 on host vipl2013 reporting.
  Task      105 on host vipl2013 reporting.
  Task      106 on host vipl2013 reporting.
  Task      107 on host vipl2013 reporting.
  Task      108 on host vipl2013 reporting.
  Task      109 on host vipl2013 reporting.
  Task      110 on host vipl2013 reporting.
  Task      111 on host vipl2013 reporting.
  Task      112 on host vipl2013 reporting.
  Task      113 on host vipl2013 reporting.
  Task      114 on host vipl2013 reporting.
  Task      115 on host vipl2013 reporting.
  Task      116 on host vipl2013 reporting.
  Task      117 on host vipl2013 reporting.
  Task      118 on host vipl2013 reporting.
  Task      119 on host vipl2013 reporting.
  Task      120 on host vipl2013 reporting.
  Task      121 on host vipl2013 reporting.
  Task      122 on host vipl2013 reporting.
  Task      123 on host vipl2013 reporting.
  Task      124 on host vipl2013 reporting.
  Task      125 on host vipl2013 reporting.
  Task      126 on host vipl2013 reporting.
  Task      127 on host vipl2013 reporting.

  Obtaining array dimensions for all initial allocations:
  
  -----------------------------------------------------------------------
  Parsing control.in (first pass over file, find array dimensions only).
  The contents of control.in will be repeated verbatim below
  unless switched off by setting 'verbatim_writeout .false.' .
  in the first line of control.in .
  -----------------------------------------------------------------------
  
  xc                 pbe
  relativistic       atomic_zora scalar
  k_grid 4 4 1
  spin               none
  charge             0.
  # use_dipole_correction: for surface slab calculations
  use_dipole_correction
  many_body_dispersion_nl
  compute_forces     .true.
  
  # elsi_restart read_and_write 1
  ri_density_restart write
  ri_full_output .True.
  ri_output_density_only .True.
  default_max_l_prodbas 6
  default_prodbas_acc 1e-4
  # wave_threshold default: 1e-6 for no output, 1e-8 for output
  wave_threshold 1e-6
  
  output band  0.66667 0.33333 0.00000  0.00000 0.00000 0.00000   11 K G
  output band  0.00000 0.00000 0.00000  0.50000 0.00000 0.00000   6 G M
  output band  0.50000 0.00000 0.00000  0.66667 0.33333 0.00000   9 M K
  
  
  
  
  ################################################################################
  #
  #  FHI-aims code project
  # Volker Blum, Fritz Haber Institute Berlin, 2009
  #
  #  Suggested "intermediate" defaults for Mo atom (to be pasted into control.in file)
  #
  #  See https://aaltodoc.aalto.fi/handle/123456789/33620 for the report these
  #  setting are based on
  ################################################################################
    species        Mo
  #     global species definitions
      nucleus             42
      mass                95.94
  #
      l_hartree           6
  #
      cut_pot             4.0  2.0  1.0
      basis_dep_cutoff    1e-4
  #
      radial_base         59 7.0
      radial_multiplier   2
      angular_grids specified
        division   0.3117   50
        division   0.6750  110
        division   1.0351  194
        division   1.2073  302
        division   1.6402  434
  #      division   1.9185  590
  #      division   2.0237  770
  #      division   2.0980  974
  #      division   2.7972 1202
  #      outer_grid  974
        outer_grid  434
  ################################################################################
  #
  #  Definition of "minimal" basis
  #
  ################################################################################
  #     valence basis states
      valence      5  s   1.
      valence      4  p   6.
      valence      4  d   5.
  #     ion occupancy
      ion_occ     5  s   0.
      ion_occ     4  p   6.
      ion_occ     4  d   4.
  ################################################################################
  #
  #  Suggested additional basis functions. For production calculations,
  #  uncomment them one after another (the most important basis functions are
  #  listed first).
  #
  #  Constructed for dimers: 1.675 A, 1.9 A, 2.375 A, 3.00 A, 4.00 A
  #
  ################################################################################
  #  "First tier"  - max. impr. -711.23  meV, min. impr. -21.07 meV
       hydro 4 f 8.4
       hydro 3 d 2.8
       ionic 5 p auto
       for_aux hydro 5 g 12
       ionic 5 s auto
  #  "Second tier" - max. impr. -39.38  meV, min. impr. -2.68 meV
  #     hydro 4 f 12.4
  #     hydro 3 d 3.3
  #     hydro 6 h 17.2
  #     hydro 4 f 7.6
  #     hydro 3 p 3.0
  #     hydro 1 s 0.65
  #  "Third tier"  - max. impr. -5.50 meV, min. impr. -0.47 meV
  #     hydro 4 f 29.2
  #     hydro 5 g 11.2
  #     hydro 3 d 6.8
  #     hydro 6 h 14.8
  #     hydro 2 p 2.3
  #     hydro 4 s 3.8
  #  "Fourth tier"  - max. impr. -0.58 meV, min. impr. -0.19 meV
  #     hydro 5 f 6.8
  #     hydro 5 d 14.8
  #     hydro 6 s 7.8
  #     hydro 5 g 20.8
  #     hydro 5 d 10.4
  #     hydro 5 p 9.8
  #  Further functions - -0.17 meV and below
  #     hydro 5 d 3.2
  for_aux hydro 5 g 0.0
  
  
  
  
  ################################################################################
  #
  #  FHI-aims code project
  #  Volker Blum, 2018
  #
  #  Suggested "intermediate" defaults for S atom (to be pasted into control.in file)
  #
  ################################################################################
    species        S
  #     global species definitions
      nucleus             16
      mass                32.065
  #
      l_hartree           6
  #
      cut_pot             4.0          2.0  1.0
      basis_dep_cutoff    1e-4
  #
      radial_base         44 7.0
      radial_multiplier   2
      angular_grids       specified
        division   0.4665  110
        division   0.5810  194
        division   0.7139  302
        division   0.8274  434
  #      division   0.9105  590
  #      division   1.0975  770
  #      division   1.2028  974
  #      outer_grid  974
        outer_grid  434
  ################################################################################
  #
  #  Definition of "minimal" basis
  #
  ################################################################################
  #     valence basis states
      valence      3  s   2.
      valence      3  p   4.
  #     ion occupancy
      ion_occ      3  s   1.
      ion_occ      3  p   3.
  ################################################################################
  #
  #  Suggested additional basis functions. For production calculations,
  #  uncomment them one after another (the most important basis functions are
  #  listed first).
  #
  #  Constructed for dimers: 1.6 A, 1.9 A, 2.5 A, 3.25 A, 4.0 A
  #
  ################################################################################
  #  "First tier" - improvements: -652.81 meV to -45.53 meV
       ionic 3 d auto
       hydro 2 p 1.8
       hydro 4 f 7
       ionic 3 s auto
  #  "Second tier" - improvements: -30.20 meV to -1.74 meV
  #     hydro 4 d 6.2
  for_aux     hydro 5 g 10.8
  #     hydro 4 p 4.9
  #     hydro 5 f 10
  #     hydro 1 s 0.8
  #  "Third tier" - improvements: -1.04 meV to -0.20 meV
  #     hydro 3 d 3.9
  #     hydro 3 d 2.7
  #     hydro 5 g 12
  #     hydro 4 p 10.4
  #     hydro 5 f 12.4
  #     hydro 2 s 1.9
  #  "Fourth tier" - improvements: -0.35 meV to -0.06 meV
  #     hydro 4 d 10.4
  #     hydro 4 p 7.2
  #     hydro 4 d 10
  #     hydro 5 g 19.2
  #     hydro 4 s 12
  
  
  
  -----------------------------------------------------------------------
  Completed first pass over input file control.in .
  -----------------------------------------------------------------------
  
  
  -----------------------------------------------------------------------
  Parsing geometry.in (first pass over file, find array dimensions only).
  The contents of geometry.in will be repeated verbatim below
  unless switched off by setting 'verbatim_writeout .false.' .
  in the first line of geometry.in .
  -----------------------------------------------------------------------
  
  #===============================================================================
  # Created using the Atomic Simulation Environment (ASE)
  
  # Fri Aug 15 14:58:08 2025
  
  #=======================================================
  lattice_vector 9.4591334818526569 0.0000000000000000 0.0000000000000000
  lattice_vector 4.7291449957995448 8.1919424597316954 0.0000000000000000
  lattice_vector 0.0000000000000000 0.0000000000000000 100.0000000000000000
  atom 0.4648942900000000 0.3108274100000000 46.8876351500000013 Mo
  atom 1.9905794900000000 1.2129008800000001 45.3128397600000028 S
  atom 2.0115875700000001 1.2156174700000000 48.3288412899999997 S
  atom 2.0820302100000001 2.9332157599999999 46.8849280499999992 Mo
  atom 3.6396258399999999 3.8969859400000000 45.2706443699999994 S
  atom 3.5853048500000000 3.9373562999999998 48.4646778800000035 S
  atom 3.6241585900000000 5.7042852999999996 46.8175435300000018 Mo
  atom 5.1960259400000002 6.5956878999999997 45.2925301599999983 S
  atom 5.3598226999999996 6.5957066800000002 48.3078776899999980 S
  atom 3.6337302899999999 0.3062543500000000 46.8376469099999966 Mo
  atom 5.1561253100000002 1.3278179400000001 45.1756020899999982 S
  atom 5.1392161400000003 1.0730480800000000 48.3721410300000016 S
  atom 5.2068721900000003 3.0613834099999999 46.7480750200000017 Mo
  atom 6.7524803699999998 3.9029593700000000 45.1714062499999969 S
  atom 6.9434881400000004 3.9598016800000000 48.3420012799999981 S
  atom 6.7967324800000002 5.7297666400000002 46.9076304000000022 Mo
  atom 8.4459735800000004 6.8396233700000000 45.2338048000000015 S
  atom 8.4924833599999996 6.5622709400000003 48.2522728900000004 S
  atom 6.7464387500000003 0.2715566900000000 46.7975642800000031 Mo
  atom 8.3472877499999996 1.3338094000000000 45.2775222799999995 S
  atom 8.4234053800000002 1.3082023000000000 48.4759969899999987 S
  atom 8.4126598999999995 3.0702833500000000 46.8260698699999978 Mo
  atom 9.7792640100000003 3.8198698499999999 45.2346350999999984 S
  atom 9.7744896800000003 3.8841115400000001 48.3332867399999984 S
  atom 9.9094550199999993 5.7441544000000002 46.8027988400000012 Mo
  atom 11.4042013499999992 6.5223481200000002 45.2939354499999993 S
  atom 11.2663203700000008 6.6389344299999999 48.2702192599999975 S
  atom 2.7041337200000002 0.4405032200000000 53.2100025800000012 Mo
  atom 4.3065169900000004 1.3201841299999999 51.5065796199999966 S
  atom 4.4098231300000004 1.3134561499999999 54.7051074399999990 S
  atom 4.3169075499999998 3.1419262600000000 53.1826761800000014 Mo
  atom 5.9159523399999996 4.1630303800000004 51.6442256200000003 S
  atom 5.9440023000000002 3.9363047600000001 54.7794272300000031 S
  atom 5.9267700500000000 5.9983611100000003 53.3136686699999984 Mo
  atom 7.5034819199999996 6.7851795399999997 51.6386030899999966 S
  atom 7.5607095099999997 6.9398455099999996 54.6647101000000006 S
  atom 5.9187383999999996 0.4207147500000000 53.0950836000000024 Mo
  atom 7.3046475099999997 1.3241174400000000 51.6355309400000024 S
  atom 7.4865313999999996 1.1543242199999999 54.7892459400000007 S
  atom 7.4746028500000001 3.1643939600000000 53.2083273399999968 Mo
  atom 9.0155319499999997 4.0292718699999996 51.6210454100000007 S
  atom 8.9505317299999998 3.9471992899999999 54.7895667100000026 S
  atom 9.1027061699999994 5.8862637600000003 53.2016393099999974 Mo
  atom 10.5730573499999991 6.7395548200000004 51.6084436699999998 S
  atom 10.6508190200000001 6.6936937600000004 54.8121565599999983 S
  atom 9.0059622099999999 0.3809400800000000 53.1472539900000029 Mo
  atom 1.2710506300000000 1.3005676900000001 51.5662161400000016 S
  atom 1.1895840799999999 1.5033573899999999 54.7089613099999994 S
  atom 10.6222480000000008 3.1314423300000001 53.2333981700000010 Mo
  atom 2.6062570799999998 4.1378335399999999 51.6097701999999998 S
  atom 2.7962068400000000 4.1856250499999996 54.7312391700000020 S
  atom 12.1718184899999997 5.8346781700000001 53.2904620899999983 Mo
  atom 4.3305035299999997 6.7382552999999996 51.6061306200000018 S
  atom 4.2804135099999998 6.6905657700000001 54.7804009500000006 S
  
  -----------------------------------------------------------------------
  Completed first pass over input file geometry.in .
  -----------------------------------------------------------------------
  

  Basic array size parameters:
  | Number of species                 :        2
  | Number of atoms                   :       54
  | Number of lattice vectors         :        3
  | Max. basis fn. angular momentum   :        4
  | Max. atomic/ionic basis occupied n:        5
  | Max. number of basis fn. types    :        3
  | Max. radial fns per species/type  :       10
  | Max. logarithmic grid size        :     1436
  | Max. radial integration grid size :      119
  | Max. angular integration grid size:      434
  | Max. angular grid division number :        8
  | Radial grid for Hartree potential :     1436
  | Number of spin channels           :        1

  Definition of standardized fundamental physical constants in this FHI-aims run:
  | Using the set of values used in FHI-aims up to 2024, which combines values from
  | different CODATA sets - see constants.f90.
  | Use the 'codata' keyword in control.in to change this selection.

  Memory overcommitment is allowed on your operating system.

------------------------------------------------------------
          Reading file control.in.
------------------------------------------------------------
  XC: Using PBE gradient-corrected functionals.
  Scalar relativistic treatment of kinetic energy: on-site free-atom approximation to ZORA.
  Found k-point grid:         4         4         1
  Spin treatment: No spin polarisation.
  Charge =   0.000000E+00: Neutral system requested explicitly.
  Using dipole correction.
  Using libMBD for calculating MBD and TS energies
  Forces will be computed.
  Threshold value for wave function integration:  0.1000E-05

  Plot band    1
  | begin  0.666670  0.333330  0.000000
  | end    0.000000  0.000000  0.000000
  | number of points:   11

  Plot band    2
  | begin  0.000000  0.000000  0.000000
  | end    0.500000  0.000000  0.000000
  | number of points:    6

  Plot band    3
  | begin  0.500000  0.000000  0.000000
  | end    0.666670  0.333330  0.000000
  | number of points:    9
 
  Reading configuration options for species Mo                  .
  | Found nuclear charge :  42.0000
  | Found atomic mass :    95.9400000000000      amu
  | Found l_max for Hartree potential  :   6
  | Found cutoff potl. onset [A], width [A], scale factor :    4.00000    2.00000    1.00000
  | Threshold for basis-dependent cutoff potential is   0.100000E-03
  | Found data for basic radial integration grid :    59 points, outermost radius =    7.000 A
  | Found multiplier for basic radial grid :   2
  | Found angular grid specification: user-specified.
  | Specified grid contains     6 separate shells.
  | Check grid settings after all constraints further below.
  | Found free-atom valence shell :  5 s   1.000
  | Found free-atom valence shell :  4 p   6.000
  | Found free-atom valence shell :  4 d   5.000
  | Found free-ion valence shell :  5 s   0.000
  | Found free-ion valence shell :  4 p   6.000
  | Found free-ion valence shell :  4 d   4.000
  | Found hydrogenic basis function :  4 f   8.400
  | Found hydrogenic basis function :  3 d   2.800
  | Found ionic basis function :  5 p , default cutoff radius.
  | Found hydrogenic extended basis function :  5 g  12.000
  | Found ionic basis function :  5 s , default cutoff radius.
  | Found hydrogenic extended basis function :  5 g   0.000
 | Encountered keyword species, ending the description of species Mo                  .
  Species Mo                  : Missing cutoff potential type.
  Defaulting to exp(1/x)/(1-x)^2 type cutoff potential.
  Species Mo: No 'logarithmic' tag. Using default grid for free atom:
  | Default logarithmic grid data [bohr] : 0.1000E-03 0.1000E+03 0.1012E+01
  | Will include ionic basis functions of  2.0-fold positive Mo                   ion.
  Species Mo: On-site basis accuracy parameter (for Gram-Schmidt orthonormalisation) not specified.
  Using default value basis_acc =  0.1000000E-03.
  Species Mo                  : Using default innermost maximum threshold i_radial=  2 for radial functions.
  Species Mo                  : Default cutoff onset for free atom density etc. : 0.40000000E+01 AA.
  Species Mo                  : Basic radial grid will be enhanced according to radial_multiplier =   2, to contain   119 grid points.
 
  Reading configuration options for species S                   .
  | Found nuclear charge :  16.0000
  | Found atomic mass :    32.0650000000000      amu
  | Found l_max for Hartree potential  :   6
  | Found cutoff potl. onset [A], width [A], scale factor :    4.00000    2.00000    1.00000
  | Threshold for basis-dependent cutoff potential is   0.100000E-03
  | Found data for basic radial integration grid :    44 points, outermost radius =    7.000 A
  | Found multiplier for basic radial grid :   2
  | Found angular grid specification: user-specified.
  | Specified grid contains     5 separate shells.
  | Check grid settings after all constraints further below.
  | Found free-atom valence shell :  3 s   2.000
  | Found free-atom valence shell :  3 p   4.000
  | Found free-ion valence shell :  3 s   1.000
  | Found free-ion valence shell :  3 p   3.000
  | Found ionic basis function :  3 d , default cutoff radius.
  | Found hydrogenic basis function :  2 p   1.800
  | Found hydrogenic basis function :  4 f   7.000
  | Found ionic basis function :  3 s , default cutoff radius.
  | Found hydrogenic extended basis function :  5 g  10.800
  Species S                   : Missing cutoff potential type.
  Defaulting to exp(1/x)/(1-x)^2 type cutoff potential.
  Species S : No 'logarithmic' tag. Using default grid for free atom:
  | Default logarithmic grid data [bohr] : 0.1000E-03 0.1000E+03 0.1012E+01
  | Will include ionic basis functions of  2.0-fold positive S                    ion.
  Species S : On-site basis accuracy parameter (for Gram-Schmidt orthonormalisation) not specified.
  Using default value basis_acc =  0.1000000E-03.
  Species S                   : Using default innermost maximum threshold i_radial=  2 for radial functions.
  Species S                   : Default cutoff onset for free atom density etc. : 0.40000000E+01 AA.
  Species S                   : Basic radial grid will be enhanced according to radial_multiplier =   2, to contain    89 grid points.
 
  Finished reading input file 'control.in'.
 
------------------------------------------------------------


------------------------------------------------------------
          Reading geometry description geometry.in.
------------------------------------------------------------
  | The smallest distance between any two atoms is         2.18523553 AA.
  | The first atom of this pair is atom number                      9 .
  | The second atom of this pair is atom number                    16 .
  | Wigner-Seitz cell of the first atom image           0     0     0 .
  | (The Wigner-Seitz cell of the second atom is 0 0 0  by definition.)

  Symmetry information by spglib:
  | Precision set to  0.1E-04
  | Number of Operations  : 1
  | Space group           : 1
  | International         : P1
  | Schoenflies           : C1^1
  Input structure read successfully.
  The structure contains       54 atoms,  and a total of       1332.000 electrons.

  Input geometry:
  | Unit cell:
  |        9.45913348        0.00000000        0.00000000
  |        4.72914500        8.19194246        0.00000000
  |        0.00000000        0.00000000      100.00000000
  | Atomic structure:
  |       Atom                x [A]            y [A]            z [A]
  |    1: Species Mo            0.46489429        0.31082741       46.88763515
  |    2: Species S             1.99057949        1.21290088       45.31283976
  |    3: Species S             2.01158757        1.21561747       48.32884129
  |    4: Species Mo            2.08203021        2.93321576       46.88492805
  |    5: Species S             3.63962584        3.89698594       45.27064437
  |    6: Species S             3.58530485        3.93735630       48.46467788
  |    7: Species Mo            3.62415859        5.70428530       46.81754353
  |    8: Species S             5.19602594        6.59568790       45.29253016
  |    9: Species S             5.35982270        6.59570668       48.30787769
  |   10: Species Mo            3.63373029        0.30625435       46.83764691
  |   11: Species S             5.15612531        1.32781794       45.17560209
  |   12: Species S             5.13921614        1.07304808       48.37214103
  |   13: Species Mo            5.20687219        3.06138341       46.74807502
  |   14: Species S             6.75248037        3.90295937       45.17140625
  |   15: Species S             6.94348814        3.95980168       48.34200128
  |   16: Species Mo            6.79673248        5.72976664       46.90763040
  |   17: Species S             8.44597358        6.83962337       45.23380480
  |   18: Species S             8.49248336        6.56227094       48.25227289
  |   19: Species Mo            6.74643875        0.27155669       46.79756428
  |   20: Species S             8.34728775        1.33380940       45.27752228
  |   21: Species S             8.42340538        1.30820230       48.47599699
  |   22: Species Mo            8.41265990        3.07028335       46.82606987
  |   23: Species S             9.77926401        3.81986985       45.23463510
  |   24: Species S             9.77448968        3.88411154       48.33328674
  |   25: Species Mo            9.90945502        5.74415440       46.80279884
  |   26: Species S            11.40420135        6.52234812       45.29393545
  |   27: Species S            11.26632037        6.63893443       48.27021926
  |   28: Species Mo            2.70413372        0.44050322       53.21000258
  |   29: Species S             4.30651699        1.32018413       51.50657962
  |   30: Species S             4.40982313        1.31345615       54.70510744
  |   31: Species Mo            4.31690755        3.14192626       53.18267618
  |   32: Species S             5.91595234        4.16303038       51.64422562
  |   33: Species S             5.94400230        3.93630476       54.77942723
  |   34: Species Mo            5.92677005        5.99836111       53.31366867
  |   35: Species S             7.50348192        6.78517954       51.63860309
  |   36: Species S             7.56070951        6.93984551       54.66471010
  |   37: Species Mo            5.91873840        0.42071475       53.09508360
  |   38: Species S             7.30464751        1.32411744       51.63553094
  |   39: Species S             7.48653140        1.15432422       54.78924594
  |   40: Species Mo            7.47460285        3.16439396       53.20832734
  |   41: Species S             9.01553195        4.02927187       51.62104541
  |   42: Species S             8.95053173        3.94719929       54.78956671
  |   43: Species Mo            9.10270617        5.88626376       53.20163931
  |   44: Species S            10.57305735        6.73955482       51.60844367
  |   45: Species S            10.65081902        6.69369376       54.81215656
  |   46: Species Mo            9.00596221        0.38094008       53.14725399
  |   47: Species S             1.27105063        1.30056769       51.56621614
  |   48: Species S             1.18958408        1.50335739       54.70896131
  |   49: Species Mo           10.62224800        3.13144233       53.23339817
  |   50: Species S             2.60625708        4.13783354       51.60977020
  |   51: Species S             2.79620684        4.18562505       54.73123917
  |   52: Species Mo           12.17181849        5.83467817       53.29046209
  |   53: Species S             4.33050353        6.73825530       51.60613062
  |   54: Species S             4.28041351        6.69056577       54.78040095

  Lattice parameters for 3D lattice (in Angstroms) :     9.459133    9.459003  100.000000
  Angle(s) between unit vectors (in degrees)       :    90.000000   90.000000   60.002493


  Quantities derived from the lattice vectors (in Angstrom^-1):
  | Reciprocal lattice vector 1:  0.664245 -0.383464  0.000000
  | Reciprocal lattice vector 2:  0.000000  0.766996  0.000000
  | Reciprocal lattice vector 3:  0.000000  0.000000  0.062832
  | Unit cell volume                               :   0.774887E+04  Angstrom^3

  Fractional coordinates:
                         L1                L2                L3
       atom_frac         0.03017782        0.03794307        0.46887635  Mo
       atom_frac         0.13641643        0.14806023        0.45312840  S
       atom_frac         0.13847156        0.14839185        0.48328841  S
       atom_frac         0.04109335        0.35806108        0.46884928  Mo
       atom_frac         0.14694010        0.47570963        0.45270644  S
       atom_frac         0.13873359        0.48063769        0.48464678  S
       atom_frac         0.03500520        0.69632878        0.46817544  Mo
       atom_frac         0.14677733        0.80514334        0.45292530  S
       atom_frac         0.16409244        0.80514563        0.48307878  S
       atom_frac         0.36545969        0.03738483        0.46837647  Mo
       atom_frac         0.46405797        0.16208829        0.45175602  S
       atom_frac         0.47781901        0.13098823        0.48372141  S
       atom_frac         0.36362308        0.37370665        0.46748075  Mo
       atom_frac         0.47566007        0.47643882        0.45171406  S
       atom_frac         0.49238392        0.48337762        0.48342001  S
       atom_frac         0.36884801        0.69943932        0.46907630  Mo
       atom_frac         0.47546765        0.83492083        0.45233805  S
       atom_frac         0.49731142        0.80106409        0.48252273  S
       atom_frac         0.69664639        0.03314924        0.46797564  Mo
       atom_frac         0.80105539        0.16281967        0.45277522  S
       atom_frac         0.81066520        0.15969379        0.48475997  S
       atom_frac         0.70198915        0.37479308        0.46826070  Mo
       atom_frac         0.80071634        0.46629598        0.45234635  S
       atom_frac         0.79629092        0.47413804        0.48333287  S
       atom_frac         0.69704050        0.70119565        0.46802799  Mo
       atom_frac         0.80756871        0.79619067        0.45293935  S
       atom_frac         0.78587694        0.81042249        0.48270219  S
       atom_frac         0.25899144        0.05377274        0.53210003  Mo
       atom_frac         0.37470503        0.16115642        0.51506580  S
       atom_frac         0.38603695        0.16033513        0.54705107  S
       atom_frac         0.26462232        0.38353861        0.53182676  Mo
       atom_frac         0.37135189        0.50818599        0.51644226  S
       atom_frac         0.38815437        0.48050933        0.54779427  S
       atom_frac         0.26048502        0.73222696        0.53313669  Mo
       atom_frac         0.37915209        0.82827480        0.51638603  S
       atom_frac         0.37576279        0.84715506        0.54664710  S
       atom_frac         0.60004048        0.05135714        0.53095084  Mo
       atom_frac         0.69142113        0.16163657        0.51635531  S
       atom_frac         0.72101202        0.14090971        0.54789246  S
       atom_frac         0.59707612        0.38628127        0.53208327  Mo
       atom_frac         0.70719633        0.49185793        0.51621045  S
       atom_frac         0.70533354        0.48183924        0.54789567  S
       atom_frac         0.60307973        0.71854310        0.53201639  Mo
       atom_frac         0.70644573        0.82270534        0.51608444  S
       atom_frac         0.71746544        0.81710703        0.54812157  S
       atom_frac         0.92884284        0.04650180        0.53147254  Mo
       atom_frac         0.05499901        0.15876182        0.51566216  S
       atom_frac         0.03401025        0.18351660        0.54708961  S
       atom_frac         0.93184969        0.38225883        0.53233398  Mo
       atom_frac         0.02299553        0.50511018        0.51609770  S
       atom_frac         0.04015990        0.51094415        0.54731239  S
       atom_frac         0.93068820        0.71224599        0.53290462  Mo
       atom_frac         0.04657518        0.82254671        0.51606131  S
       atom_frac         0.04419027        0.81672519        0.54780401  S

  Slab Identifier: This is Z-oriented slab and maximum thickness of the vacuum is: 90.359 Angstrom.
 
  Finished reading input file 'geometry.in'.
 

 
  Consistency checks for stacksize environment parameter are next.
 
  | Maximum stacksize for task 0: unlimited
  | Maximum stacksize for task 1: unlimited
  | Maximum stacksize for task 2: unlimited
  | Maximum stacksize for task 3: unlimited
  | Maximum stacksize for task 4: unlimited
  | Maximum stacksize for task 5: unlimited
  | Maximum stacksize for task 6: unlimited
  | Maximum stacksize for task 7: unlimited
  | Maximum stacksize for task 8: unlimited
  | Maximum stacksize for task 9: unlimited
  | Maximum stacksize for task 10: unlimited
  | Maximum stacksize for task 11: unlimited
  | Maximum stacksize for task 12: unlimited
  | Maximum stacksize for task 13: unlimited
  | Maximum stacksize for task 14: unlimited
  | Maximum stacksize for task 15: unlimited
  | Maximum stacksize for task 16: unlimited
  | Maximum stacksize for task 17: unlimited
  | Maximum stacksize for task 18: unlimited
  | Maximum stacksize for task 19: unlimited
  | Maximum stacksize for task 20: unlimited
  | Maximum stacksize for task 21: unlimited
  | Maximum stacksize for task 22: unlimited
  | Maximum stacksize for task 23: unlimited
  | Maximum stacksize for task 24: unlimited
  | Maximum stacksize for task 25: unlimited
  | Maximum stacksize for task 26: unlimited
  | Maximum stacksize for task 27: unlimited
  | Maximum stacksize for task 28: unlimited
  | Maximum stacksize for task 29: unlimited
  | Maximum stacksize for task 30: unlimited
  | Maximum stacksize for task 31: unlimited
  | Maximum stacksize for task 32: unlimited
  | Maximum stacksize for task 33: unlimited
  | Maximum stacksize for task 34: unlimited
  | Maximum stacksize for task 35: unlimited
  | Maximum stacksize for task 36: unlimited
  | Maximum stacksize for task 37: unlimited
  | Maximum stacksize for task 38: unlimited
  | Maximum stacksize for task 39: unlimited
  | Maximum stacksize for task 40: unlimited
  | Maximum stacksize for task 41: unlimited
  | Maximum stacksize for task 42: unlimited
  | Maximum stacksize for task 43: unlimited
  | Maximum stacksize for task 44: unlimited
  | Maximum stacksize for task 45: unlimited
  | Maximum stacksize for task 46: unlimited
  | Maximum stacksize for task 47: unlimited
  | Maximum stacksize for task 48: unlimited
  | Maximum stacksize for task 49: unlimited
  | Maximum stacksize for task 50: unlimited
  | Maximum stacksize for task 51: unlimited
  | Maximum stacksize for task 52: unlimited
  | Maximum stacksize for task 53: unlimited
  | Maximum stacksize for task 54: unlimited
  | Maximum stacksize for task 55: unlimited
  | Maximum stacksize for task 56: unlimited
  | Maximum stacksize for task 57: unlimited
  | Maximum stacksize for task 58: unlimited
  | Maximum stacksize for task 59: unlimited
  | Maximum stacksize for task 60: unlimited
  | Maximum stacksize for task 61: unlimited
  | Maximum stacksize for task 62: unlimited
  | Maximum stacksize for task 63: unlimited
  | Maximum stacksize for task 64: unlimited
  | Maximum stacksize for task 65: unlimited
  | Maximum stacksize for task 66: unlimited
  | Maximum stacksize for task 67: unlimited
  | Maximum stacksize for task 68: unlimited
  | Maximum stacksize for task 69: unlimited
  | Maximum stacksize for task 70: unlimited
  | Maximum stacksize for task 71: unlimited
  | Maximum stacksize for task 72: unlimited
  | Maximum stacksize for task 73: unlimited
  | Maximum stacksize for task 74: unlimited
  | Maximum stacksize for task 75: unlimited
  | Maximum stacksize for task 76: unlimited
  | Maximum stacksize for task 77: unlimited
  | Maximum stacksize for task 78: unlimited
  | Maximum stacksize for task 79: unlimited
  | Maximum stacksize for task 80: unlimited
  | Maximum stacksize for task 81: unlimited
  | Maximum stacksize for task 82: unlimited
  | Maximum stacksize for task 83: unlimited
  | Maximum stacksize for task 84: unlimited
  | Maximum stacksize for task 85: unlimited
  | Maximum stacksize for task 86: unlimited
  | Maximum stacksize for task 87: unlimited
  | Maximum stacksize for task 88: unlimited
  | Maximum stacksize for task 89: unlimited
  | Maximum stacksize for task 90: unlimited
  | Maximum stacksize for task 91: unlimited
  | Maximum stacksize for task 92: unlimited
  | Maximum stacksize for task 93: unlimited
  | Maximum stacksize for task 94: unlimited
  | Maximum stacksize for task 95: unlimited
  | Maximum stacksize for task 96: unlimited
  | Maximum stacksize for task 97: unlimited
  | Maximum stacksize for task 98: unlimited
  | Maximum stacksize for task 99: unlimited
  | Maximum stacksize for task 100: unlimited
  | Maximum stacksize for task 101: unlimited
  | Maximum stacksize for task 102: unlimited
  | Maximum stacksize for task 103: unlimited
  | Maximum stacksize for task 104: unlimited
  | Maximum stacksize for task 105: unlimited
  | Maximum stacksize for task 106: unlimited
  | Maximum stacksize for task 107: unlimited
  | Maximum stacksize for task 108: unlimited
  | Maximum stacksize for task 109: unlimited
  | Maximum stacksize for task 110: unlimited
  | Maximum stacksize for task 111: unlimited
  | Maximum stacksize for task 112: unlimited
  | Maximum stacksize for task 113: unlimited
  | Maximum stacksize for task 114: unlimited
  | Maximum stacksize for task 115: unlimited
  | Maximum stacksize for task 116: unlimited
  | Maximum stacksize for task 117: unlimited
  | Maximum stacksize for task 118: unlimited
  | Maximum stacksize for task 119: unlimited
  | Maximum stacksize for task 120: unlimited
  | Maximum stacksize for task 121: unlimited
  | Maximum stacksize for task 122: unlimited
  | Maximum stacksize for task 123: unlimited
  | Maximum stacksize for task 124: unlimited
  | Maximum stacksize for task 125: unlimited
  | Maximum stacksize for task 126: unlimited
  | Maximum stacksize for task 127: unlimited
  | Current stacksize for task 0: unlimited
  | Current stacksize for task 1: unlimited
  | Current stacksize for task 2: unlimited
  | Current stacksize for task 3: unlimited
  | Current stacksize for task 4: unlimited
  | Current stacksize for task 5: unlimited
  | Current stacksize for task 6: unlimited
  | Current stacksize for task 7: unlimited
  | Current stacksize for task 8: unlimited
  | Current stacksize for task 9: unlimited
  | Current stacksize for task 10: unlimited
  | Current stacksize for task 11: unlimited
  | Current stacksize for task 12: unlimited
  | Current stacksize for task 13: unlimited
  | Current stacksize for task 14: unlimited
  | Current stacksize for task 15: unlimited
  | Current stacksize for task 16: unlimited
  | Current stacksize for task 17: unlimited
  | Current stacksize for task 18: unlimited
  | Current stacksize for task 19: unlimited
  | Current stacksize for task 20: unlimited
  | Current stacksize for task 21: unlimited
  | Current stacksize for task 22: unlimited
  | Current stacksize for task 23: unlimited
  | Current stacksize for task 24: unlimited
  | Current stacksize for task 25: unlimited
  | Current stacksize for task 26: unlimited
  | Current stacksize for task 27: unlimited
  | Current stacksize for task 28: unlimited
  | Current stacksize for task 29: unlimited
  | Current stacksize for task 30: unlimited
  | Current stacksize for task 31: unlimited
  | Current stacksize for task 32: unlimited
  | Current stacksize for task 33: unlimited
  | Current stacksize for task 34: unlimited
  | Current stacksize for task 35: unlimited
  | Current stacksize for task 36: unlimited
  | Current stacksize for task 37: unlimited
  | Current stacksize for task 38: unlimited
  | Current stacksize for task 39: unlimited
  | Current stacksize for task 40: unlimited
  | Current stacksize for task 41: unlimited
  | Current stacksize for task 42: unlimited
  | Current stacksize for task 43: unlimited
  | Current stacksize for task 44: unlimited
  | Current stacksize for task 45: unlimited
  | Current stacksize for task 46: unlimited
  | Current stacksize for task 47: unlimited
  | Current stacksize for task 48: unlimited
  | Current stacksize for task 49: unlimited
  | Current stacksize for task 50: unlimited
  | Current stacksize for task 51: unlimited
  | Current stacksize for task 52: unlimited
  | Current stacksize for task 53: unlimited
  | Current stacksize for task 54: unlimited
  | Current stacksize for task 55: unlimited
  | Current stacksize for task 56: unlimited
  | Current stacksize for task 57: unlimited
  | Current stacksize for task 58: unlimited
  | Current stacksize for task 59: unlimited
  | Current stacksize for task 60: unlimited
  | Current stacksize for task 61: unlimited
  | Current stacksize for task 62: unlimited
  | Current stacksize for task 63: unlimited
  | Current stacksize for task 64: unlimited
  | Current stacksize for task 65: unlimited
  | Current stacksize for task 66: unlimited
  | Current stacksize for task 67: unlimited
  | Current stacksize for task 68: unlimited
  | Current stacksize for task 69: unlimited
  | Current stacksize for task 70: unlimited
  | Current stacksize for task 71: unlimited
  | Current stacksize for task 72: unlimited
  | Current stacksize for task 73: unlimited
  | Current stacksize for task 74: unlimited
  | Current stacksize for task 75: unlimited
  | Current stacksize for task 76: unlimited
  | Current stacksize for task 77: unlimited
  | Current stacksize for task 78: unlimited
  | Current stacksize for task 79: unlimited
  | Current stacksize for task 80: unlimited
  | Current stacksize for task 81: unlimited
  | Current stacksize for task 82: unlimited
  | Current stacksize for task 83: unlimited
  | Current stacksize for task 84: unlimited
  | Current stacksize for task 85: unlimited
  | Current stacksize for task 86: unlimited
  | Current stacksize for task 87: unlimited
  | Current stacksize for task 88: unlimited
  | Current stacksize for task 89: unlimited
  | Current stacksize for task 90: unlimited
  | Current stacksize for task 91: unlimited
  | Current stacksize for task 92: unlimited
  | Current stacksize for task 93: unlimited
  | Current stacksize for task 94: unlimited
  | Current stacksize for task 95: unlimited
  | Current stacksize for task 96: unlimited
  | Current stacksize for task 97: unlimited
  | Current stacksize for task 98: unlimited
  | Current stacksize for task 99: unlimited
  | Current stacksize for task 100: unlimited
  | Current stacksize for task 101: unlimited
  | Current stacksize for task 102: unlimited
  | Current stacksize for task 103: unlimited
  | Current stacksize for task 104: unlimited
  | Current stacksize for task 105: unlimited
  | Current stacksize for task 106: unlimited
  | Current stacksize for task 107: unlimited
  | Current stacksize for task 108: unlimited
  | Current stacksize for task 109: unlimited
  | Current stacksize for task 110: unlimited
  | Current stacksize for task 111: unlimited
  | Current stacksize for task 112: unlimited
  | Current stacksize for task 113: unlimited
  | Current stacksize for task 114: unlimited
  | Current stacksize for task 115: unlimited
  | Current stacksize for task 116: unlimited
  | Current stacksize for task 117: unlimited
  | Current stacksize for task 118: unlimited
  | Current stacksize for task 119: unlimited
  | Current stacksize for task 120: unlimited
  | Current stacksize for task 121: unlimited
  | Current stacksize for task 122: unlimited
  | Current stacksize for task 123: unlimited
  | Current stacksize for task 124: unlimited
  | Current stacksize for task 125: unlimited
  | Current stacksize for task 126: unlimited
  | Current stacksize for task 127: unlimited
 
  Consistency checks for the contents of control.in are next.
 
  MPI_IN_PLACE appears to work with this MPI implementation.
  | Keeping use_mpi_in_place .true. (see manual).
  Explicit treatment of the Coulomb operator is needed, but the RI method is not specified.
  Coulomb operator: Defaulting to 'LVL fast' resolution of identity - RI_type = LVL_fast
  Species Mo: Using default value for prodbas_acc =   1.000000E-04.
  Species Mo: Using default value max_l_prodbas =     6.
  Species S: Using default value for prodbas_acc =   1.000000E-04.
  Species S: Using default value max_l_prodbas =     6.
  Target number of points in a grid batch is not set. Defaulting to  100
  Method for grid partitioning is not set. Defaulting to parallel hash+maxmin partitioning.
  Batch size limit is not set. Defaulting to    200
  By default, will store active basis functions for each batch.
  If in need of memory, prune_basis_once .false. can be used to disable this option.
  communication_type for Hartree potential was not specified.
  Defaulting to calc_hartree .
  Defaulting to Pulay charge density mixer.
  Pulay mixer: Number of relevant iterations not set.
  Defaulting to    8 iterations.
  Pulay mixer: Number of initial linear mixing iterations not set.
  Defaulting to    0 iterations.
  Work space size for distributed Hartree potential not set.
  Defaulting to   0.200000E+03 MB.
  Mixing parameter for charge density mixing has not been set.
  Using default: charge_mix_param =     0.0500.
  The mixing parameter will be adjusted in iteration number     2 of each s.c.f. cycle (i.e., each geometry step).
  Algorithm-dependent basis array size parameters:
  | n_max_pulay                         :        8
  Maximum number of self-consistency iterations not provided.
  Presetting  1000 iterations.
  Presetting      1001 iterations before the initial mixing cycle
  is restarted anyway using the sc_init_iter criterion / keyword.
  Presetting a factor      1.000 between actual scf density residual
  and density convergence criterion sc_accuracy_rho below which sc_init_iter
  takes no effect.
 * No s.c.f. convergence criteria (sc_accuracy_*) were provided in control.in.
 * The run will proceed with a reasonable default guess, but please check whether.
 * the s.c.f. cycles seem to take too much or too little time.
  Geometry relaxation not requested: no relaxation will be performed.
  Forces evaluation will include force correction term due to incomplete self-consistency (default).
 * Notice: The s.c.f. convergence criterion sc_accuracy_rho was not provided.
 * We used to stop in this case, and ask the user to provide reasonable
 * scf convergence criteria. However, this led some users to employ criteria
 * that led to extremely long run times, e.g., for simple relaxation.
 * We now preset a default value for sc_accuracy_rho if it is not set.
 * You may still wish to check if this setting is too tight or too loose for your needs.
 * Based on n_atoms and forces and force-correction status, FHI-aims chose sc_accuracy_rho =  0.300000E-05 .
  Force calculation: scf convergence accuracy of forces not set.
  Defaulting to 'sc_accuracy_forces not_checked'.
  Handling of forces: Unphysical translation and rotation will be removed from forces.
  No accuracy limit for integral partition fn. given. Defaulting to  0.1000E-14.
  No occupation type (smearing scheme) given. Defaulting to Gaussian broadening, width =  0.1000E-01 eV.
  The width will be adjusted in iteration number     2 of each s.c.f. cycle (i.e., each geometry step).
  No accuracy for occupation numbers given. Defaulting to  0.1000E-12.
  No threshold value for occupation numbers given. Defaulting to  0.0000E+00.
  No accuracy for fermi level given. Defaulting to  0.1000E-19.
  Maximum # of iterations to find E_F not set. Defaulting to  200.
  Preferred method for the eigenvalue solver ('KS_method') not specified in 'control.in'.
  Calling BLACS routine to test compilation state
  Since ScaLAPACK support is enabled, defaulting to ELPA (via ELSI).
  Will not use alltoall communication since running on < 1024 CPUs.
  Threshold for basis singularities not set.
  Default threshold for basis singularities:  0.1000E-04
  partition_type (choice of integration weights) for integrals was not specified.
  | Using a version of the partition function of Stratmann and coworkers ('stratmann_sparse').
  | At each grid point, the set of atoms used to build the partition table is smoothly restricted to
  | only those atoms whose free-atom density would be non-zero at that grid point.
  Partitioning for Hartree potential was not defined. Using partition_type for integrals.
  | Adjusted default value of keyword multip_moments_threshold to:       0.10000000E-11
  | This value may affect high angular momentum components of the Hartree potential in periodic systems.
  Angular momentum expansion for Kerker preconditioner not set explicitly.
  | Using default value of   0
  No explicit requirement for turning off preconditioner.
  | By default, it will be turned off when the charge convergence reaches
  | sc_accuracy_rho  =   0.300000E-05
  No special mixing parameter while Kerker preconditioner is on.
  Using default: charge_mix_param =     0.0500.
  Threshold for auxiliary basis singularities not set.
  Default threshold for auxiliary basis singularities:  0.1000E-04
  No q(lm)/r^(l+1) cutoff set for long-range Hartree potential.
  | Using default value of  0.100000E-09 .
  | Verify using the multipole_threshold keyword.
  Defaulting to new monopole extrapolation.
  Density update method: automatic selection selected.
  Using density matrix based charge density update.
  Using density matrix based charge density update.
  Using packed matrix style: index .
  Defaulting to use time-reversal symmetry for k-point grid.
  Charge integration errors on the 3D integration grid will be compensated
  by explicit normalization and distribution of residual charges.
  Use the "compensate_multipole_errors" flag to change this behaviour.
  Default to 1D ("use_logsbt") integrations for auxiliary 2-center integrals.
  Default onset of logarithmic r-grid for SBT is -38.000000000000
  Default onset of logarithmic k-grid for SBT is -25.000000000000
  Default range of logarithmic r- and k-grid for SBT is  45.000000000000
  Default number of logarithmic r- and k-grid for SBT is   4096
  Default of use_2d_corr is to use the efficient 2D distribution where possible
  Found no potential conflicts with setting 'use_local_index' for this calculation.
  Flag 'use_local_index' has not been set.
  Testing whether we classify this calculation as large-scale ...
  The calculation contains less than 100 atoms. This is most likely not a large-scale calculation.
  Not setting 'use_local_index'.
 
  Consistency checks for the contents of geometry.in are next.
 

  Range separation radius for Ewald summation (hartree_convergence_parameter):      5.00000000 bohr.
  Number of empty states per atom not set in control.in - providing a guess from actual geometry.
  | Total number of empty states used during s.c.f. cycle:      207
  If you use a very high smearing, use empty_states (per atom!) in control.in to increase this value.
  * Since a DOS, bandstructure or SOC calculation was requested, the number of empty states requested was INCREASED.
  | Number of empty states (old):     414.0000000
  | Number of empty states (new):     424.0000000

  Structure-dependent array size parameters: 
  | Maximum number of distinct radial functions  :       26
  | Maximum number of basis functions            :     2268
  | Number of Kohn-Sham states (occupied + empty):      878
------------------------------------------------------------
 Error: The dipole correction needs vacuum z-level to be defined
 Vacuum level will be determined automatically.
 Determine position of vacuum level automatically
 **WARNING** : This feature is experimental and still requires some testing
 **PLEASE ** : If you see it fail, please report.
 Vacuum level determined:
 set_vacuum_level   99.99178 Bohr

  Checking k-grid inconsistencies now:
  | Checks passed.
  After read_input_data [GB]:   1026.65

  Performing system and environment tests:
  | Environment variable OMP_NUM_THREADS correctly set to 1.
  | Checking for ScaLAPACK...
  | Testing pdtran()...
  | All pdtran() tests passed.
  After prepare_system [GB]:   1026.57

------------------------------------------------------------
          Preparing all fixed parts of the calculation.
------------------------------------------------------------
  Determining machine precision:
    2.225073858507201E-308
  Setting up grids for atomic and cluster calculations.

  Creating wave function, potential, and density for free atoms.
  Runtime choices for atomic solver:
  | atomic solver xc        : PBE
  | compute density gradient: 1
  | compute kinetic density : F

  Species: Mo

  List of occupied orbitals and eigenvalues:
    n    l              occ      energy [Ha]    energy [eV]
    1    0           2.0000      -745.344654    -20281.8600
    2    0           2.0000      -103.288246     -2810.6162
    3    0           2.0000       -17.516687      -476.6533
    4    0           2.0000        -2.358559       -64.1796
    5    0           1.0000        -0.145159        -3.9500
    2    1           6.0000       -92.308627     -2511.8455
    3    1           6.0000       -13.936005      -379.2180
    4    1           6.0000        -1.408138       -38.3174
    3    2          10.0000        -8.119011      -220.9295
    4    2           5.0000        -0.132984        -3.6187


  Species: S

  List of occupied orbitals and eigenvalues:
    n    l              occ      energy [Ha]    energy [eV]
    1    0           2.0000       -88.680731     -2413.1255
    2    0           2.0000        -7.781719      -211.7513
    3    0           2.0000        -0.633662       -17.2428
    2    1           6.0000        -5.751976      -156.5192
    3    1           4.0000        -0.257086        -6.9957


  Adding cutoff potential to free-atom effective potential.
  Creating fixed part of basis set: Ionic, confined, hydrogenic.
 
  Mo                   ion:

  List of free ionic orbitals and eigenvalues:
    n    l      energy [Ha]    energy [eV]
    1    0      -746.048685    -20301.0176
    2    0      -103.980912     -2829.4646
    3    0       -18.206601      -495.4268
    4    0        -3.040545       -82.7374
    2    1       -93.001013     -2530.6863
    3    1       -14.625827      -397.9890
    4    1        -2.084855       -56.7318
    3    2        -8.808854      -239.7011
    4    2        -0.765435       -20.8285


  List of ionic basis orbitals and eigenvalues:
    n    l      energy [Ha]    energy [eV]    outer radius [A]
    5    1        -0.465587       -12.6693       5.456393
    5    0        -0.650331       -17.6964       5.390095

 
  Mo                   hydrogenic:
 
  List of hydrogenic basis orbitals: 
    n    l      effective z      eigenvalue [eV]  inner max. [A]     outer max. [A]     outer radius [A]   
    4    3         8.400000       -60.0010           1.009788           1.009788           4.487018
    3    2         2.800000       -11.8048           1.687401           1.687401           5.456393
 
  List of extra hydrogenic orbitals for auxiliary basis: 
    n    l      effective z      eigenvalue [eV]  inner max. [A]     outer max. [A]     outer radius [A]   
    5    4        12.000000       -78.3687           1.100005           1.100005           4.432498
    5    4         0.000000        11.2623           3.513767           3.513767           5.523507
 
 
  S                    ion:

  List of free ionic orbitals and eigenvalues:
    n    l      energy [Ha]    energy [eV]
    1    0       -89.703778     -2440.9640
    2    0        -8.775428      -238.7916
    3    0        -1.470343       -40.0101
    2    1        -6.747660      -183.6132
    3    1        -1.048627       -28.5346


  List of ionic basis orbitals and eigenvalues:
    n    l      energy [Ha]    energy [eV]    outer radius [A]
    3    2        -0.495605       -13.4861       5.386362
    3    0        -1.470336       -40.0099       3.967934

 
  S                    hydrogenic:
 
  List of hydrogenic basis orbitals: 
    n    l      effective z      eigenvalue [eV]  inner max. [A]     outer max. [A]     outer radius [A]   
    2    1         1.800000       -11.0118           1.168531           1.168531           5.452614
    4    3         7.000000       -41.6672           1.212182           1.212182           5.066981
 
  List of extra hydrogenic orbitals for auxiliary basis: 
    n    l      effective z      eigenvalue [eV]  inner max. [A]     outer max. [A]     outer radius [A]   
    5    4        10.800000       -63.4785           1.227092           1.227092           4.766538
 
  Creating atomic-like basis functions for current effective potential.

  Species Mo                  :

  List of atomic basis orbitals and eigenvalues:
    n    l      energy [Ha]    energy [eV]    outer radius [A]
    1    0      -745.344654    -20281.8600       0.247552
    2    0      -103.288246     -2810.6162       0.682864
    3    0       -17.516687      -476.6533       1.626637
    4    0        -2.358559       -64.1796       4.220963
    5    0        -0.145159        -3.9500       5.456393
    2    1       -92.308627     -2511.8455       0.699766
    3    1       -13.936005      -379.2180       1.793761
    4    1        -1.408138       -38.3174       4.828511
    3    2        -8.119011      -220.9295       2.181285
    4    2        -0.132984        -3.6187       5.390095


  Species S                   :

  List of atomic basis orbitals and eigenvalues:
    n    l      energy [Ha]    energy [eV]    outer radius [A]
    1    0       -88.680731     -2413.1255       0.682391
    2    0        -7.781719      -211.7513       2.289014
    3    0        -0.633662       -17.2428       5.256262
    2    1        -5.751976      -156.5192       2.555240
    3    1        -0.257086        -6.9957       5.386362

  Assembling full basis from fixed parts.
  | Species Mo :   atomic orbital   1 s accepted.
  | Species Mo :   atomic orbital   2 s accepted.
  | Species Mo :   atomic orbital   3 s accepted.
  | Species Mo :   atomic orbital   4 s accepted.
  | Species Mo :    ionic orbital   5 s accepted.
  | Species Mo :   atomic orbital   5 s accepted.
  | Species Mo :   atomic orbital   2 p accepted.
  | Species Mo :   atomic orbital   3 p accepted.
  | Species Mo :   atomic orbital   4 p accepted.
  | Species Mo :    ionic orbital   5 p accepted.
  | Species Mo :   atomic orbital   3 d accepted.
  | Species Mo :   atomic orbital   4 d accepted.
  | Species Mo :    hydro orbital   3 d accepted.
  | Species Mo :    hydro orbital   4 f accepted.
  | Species S :   atomic orbital   1 s accepted.
  | Species S :   atomic orbital   2 s accepted.
  | Species S :    ionic orbital   3 s accepted.
  | Species S :   atomic orbital   3 s accepted.
  | Species S :   atomic orbital   2 p accepted.
  | Species S :   atomic orbital   3 p accepted.
  | Species S :    hydro orbital   2 p accepted.
  | Species S :    ionic orbital   3 d accepted.
  | Species S :    hydro orbital   4 f accepted.
 
  Basis size parameters after reduction:
  | Total number of radial functions:       23
  | Total number of basis functions :     1620
 
  Assembling extended basis for auxiliary basis.
  | Species Mo :   atomic orbital   1 s accepted.
  | Species Mo :   atomic orbital   2 s accepted.
  | Species Mo :   atomic orbital   3 s accepted.
  | Species Mo :   atomic orbital   4 s accepted.
  | Species Mo :    ionic orbital   5 s accepted.
  | Species Mo :   atomic orbital   5 s accepted.
  | Species Mo :   atomic orbital   2 p accepted.
  | Species Mo :   atomic orbital   3 p accepted.
  | Species Mo :   atomic orbital   4 p accepted.
  | Species Mo :    ionic orbital   5 p accepted.
  | Species Mo :   atomic orbital   3 d accepted.
  | Species Mo :   atomic orbital   4 d accepted.
  | Species Mo :    hydro orbital   3 d accepted.
  | Species Mo :    hydro orbital   4 f accepted.
  | Species Mo :    hydro orbital   5 g accepted.
  | Species Mo :    hydro orbital   5 g accepted.
  | Species S :   atomic orbital   1 s accepted.
  | Species S :   atomic orbital   2 s accepted.
  | Species S :    ionic orbital   3 s accepted.
  | Species S :   atomic orbital   3 s accepted.
  | Species S :   atomic orbital   2 p accepted.
  | Species S :   atomic orbital   3 p accepted.
  | Species S :    hydro orbital   2 p accepted.
  | Species S :    ionic orbital   3 d accepted.
  | Species S :    hydro orbital   4 f accepted.
  | Species S :    hydro orbital   5 g accepted.
  Per-task memory consumption for arrays in subroutine allocate_ext:
  |           9.611048MB.
 
  Extended basis size parameters after reduction:
  | Total number of radial functions:       26
  | Total number of basis functions :     2268
 
  Testing on-site integration grid accuracy.
  |  Species  Function  <phi|h_atom|phi> (log., in eV)  <phi|h_atom|phi> (rad., in eV)
           1        1             -20281.8599610543             -20281.8584300616
           1        2              -2810.6161812280              -2810.6161551921
           1        3               -476.6533163555               -476.6533136395
           1        4                -64.1796433667                -64.1796426456
           1        5                 -3.3691762756                 -3.3691802887
           1        6                  4.4704608512                  4.4699102345
           1        7              -2511.8455406047              -2511.8455385741
           1        8               -379.2179896350               -379.2179882338
           1        9                -38.3173891619                -38.3173886619
           1       10                  0.2493245095                  0.2492931069
           1       11               -220.9295301098               -220.9295297081
           1       12                 -3.6195697699                 -3.6195754704
           1       13                  7.1428000922                  7.1426882355
           1       14                 23.3975871087                 23.3975871819
           2       15              -2413.1254568977              -2413.1254096663
           2       16               -211.7513411281               -211.7513404762
           2       17                -16.9725280787                -16.9725279206
           2       18                  7.6024436204                  7.6024549059
           2       19               -156.5192206929               -156.5192205451
           2       20                 -6.9959757887                 -6.9959777655
           2       21                  6.8896462808                  6.8895564741
           2       22                  6.0214250550                  6.0214220200
           2       23                 24.7008710786                 24.7008710738

  Preparing densities etc. for the partition functions (integrals / Hartree potential).
 Frequency grid relative error: 0.12426359941031251E-009                        
   
 Will use parallel mode: atoms     
 BLACS grid: 8 x 16
 BLACS block size: 9                                                 

  Preparations completed.
  max(cpu_time)          :      0.255 s.
  Wall clock time (cpu1) :      0.256 s.
------------------------------------------------------------
  After prepare_scf [GB]:   1023.06

  Initializing index lists of integration centers etc. from given atomic structure:
  Mapping all atomic coordinates to central unit cell.

  Initializing the k-points
  Using symmetry for reducing the k-points
  | k-points reduced from:       16 to       10
  | Number of k-points                             :        10
  The eigenvectors in the calculations are COMPLEX.
  | Number of basis functions in the Hamiltonian integrals :     11564
  | Number of basis functions in a single unit cell        :      1620
  | Number of centers in hartree potential         :      2122
  | Number of centers in hartree multipole         :      1182
  | Number of centers in electron density summation:      1002
  | Number of centers in basis integrals           :      1054
  | Number of centers in integrals                 :       557
  | Number of centers in hamiltonian               :      1002
  | Consuming          7 KiB for k_phase.
  | Number of super-cells (origin) [n_cells]                     :         147
  | Number of super-cells (after PM_index) [n_cells]             :          48
  | Number of super-cells in hamiltonian [n_cells_in_hamiltonian]:          48
  | Size of matrix packed + index [n_hamiltonian_matrix_size] :     3328582
  After initialize_bc_dependent_lists [GB]:   1020.39

------------------------------------------------------------
          Begin self-consistency loop: Initialization.

          Date     :  20250819, Time     :  103025.419
------------------------------------------------------------
  Available memory per node after initialize_hartree_non_periodic_ewald [GB]:   1020.38
  | Estimated reciprocal-space cutoff momentum G_max:         1.90186217 bohr^-1 .
  | Reciprocal lattice points for long-range Hartree potential:    6162
  Available memory per node after initialize_recip_hartree_potential [GB]:   1020.38
  Using simple linear distribution as default method for k-point parallelism.
  * Using 128 tasks for Scalapack Eigenvalue solver.
  Detailed listing of tasks and assigned k-points:
   Task     0 k-point     1 on vipl2013
   Task     1 k-point     1 on vipl2013
   Task     2 k-point     1 on vipl2013
   Task     3 k-point     1 on vipl2013
   Task     4 k-point     1 on vipl2013
   Task     5 k-point     1 on vipl2013
   Task     6 k-point     1 on vipl2013
   Task     7 k-point     1 on vipl2013
   Task     8 k-point     1 on vipl2013
   Task     9 k-point     1 on vipl2013
   Task    10 k-point     1 on vipl2013
   Task    11 k-point     1 on vipl2013
   Task    12 k-point     1 on vipl2013
   Task    13 k-point     2 on vipl2013
   Task    14 k-point     2 on vipl2013
   Task    15 k-point     2 on vipl2013
   Task    16 k-point     2 on vipl2013
   Task    17 k-point     2 on vipl2013
   Task    18 k-point     2 on vipl2013
   Task    19 k-point     2 on vipl2013
   Task    20 k-point     2 on vipl2013
   Task    21 k-point     2 on vipl2013
   Task    22 k-point     2 on vipl2013
   Task    23 k-point     2 on vipl2013
   Task    24 k-point     2 on vipl2013
   Task    25 k-point     2 on vipl2013
   Task    26 k-point     3 on vipl2013
   Task    27 k-point     3 on vipl2013
   Task    28 k-point     3 on vipl2013
   Task    29 k-point     3 on vipl2013
   Task    30 k-point     3 on vipl2013
   Task    31 k-point     3 on vipl2013
   Task    32 k-point     3 on vipl2013
   Task    33 k-point     3 on vipl2013
   Task    34 k-point     3 on vipl2013
   Task    35 k-point     3 on vipl2013
   Task    36 k-point     3 on vipl2013
   Task    37 k-point     3 on vipl2013
   Task    38 k-point     3 on vipl2013
   Task    39 k-point     4 on vipl2013
   Task    40 k-point     4 on vipl2013
   Task    41 k-point     4 on vipl2013
   Task    42 k-point     4 on vipl2013
   Task    43 k-point     4 on vipl2013
   Task    44 k-point     4 on vipl2013
   Task    45 k-point     4 on vipl2013
   Task    46 k-point     4 on vipl2013
   Task    47 k-point     4 on vipl2013
   Task    48 k-point     4 on vipl2013
   Task    49 k-point     4 on vipl2013
   Task    50 k-point     4 on vipl2013
   Task    51 k-point     4 on vipl2013
   Task    52 k-point     5 on vipl2013
   Task    53 k-point     5 on vipl2013
   Task    54 k-point     5 on vipl2013
   Task    55 k-point     5 on vipl2013
   Task    56 k-point     5 on vipl2013
   Task    57 k-point     5 on vipl2013
   Task    58 k-point     5 on vipl2013
   Task    59 k-point     5 on vipl2013
   Task    60 k-point     5 on vipl2013
   Task    61 k-point     5 on vipl2013
   Task    62 k-point     5 on vipl2013
   Task    63 k-point     5 on vipl2013
   Task    64 k-point     6 on vipl2013
   Task    65 k-point     6 on vipl2013
   Task    66 k-point     6 on vipl2013
   Task    67 k-point     6 on vipl2013
   Task    68 k-point     6 on vipl2013
   Task    69 k-point     6 on vipl2013
   Task    70 k-point     6 on vipl2013
   Task    71 k-point     6 on vipl2013
   Task    72 k-point     6 on vipl2013
   Task    73 k-point     6 on vipl2013
   Task    74 k-point     6 on vipl2013
   Task    75 k-point     6 on vipl2013
   Task    76 k-point     6 on vipl2013
   Task    77 k-point     7 on vipl2013
   Task    78 k-point     7 on vipl2013
   Task    79 k-point     7 on vipl2013
   Task    80 k-point     7 on vipl2013
   Task    81 k-point     7 on vipl2013
   Task    82 k-point     7 on vipl2013
   Task    83 k-point     7 on vipl2013
   Task    84 k-point     7 on vipl2013
   Task    85 k-point     7 on vipl2013
   Task    86 k-point     7 on vipl2013
   Task    87 k-point     7 on vipl2013
   Task    88 k-point     7 on vipl2013
   Task    89 k-point     7 on vipl2013
   Task    90 k-point     8 on vipl2013
   Task    91 k-point     8 on vipl2013
   Task    92 k-point     8 on vipl2013
   Task    93 k-point     8 on vipl2013
   Task    94 k-point     8 on vipl2013
   Task    95 k-point     8 on vipl2013
   Task    96 k-point     8 on vipl2013
   Task    97 k-point     8 on vipl2013
   Task    98 k-point     8 on vipl2013
   Task    99 k-point     8 on vipl2013
   Task   100 k-point     8 on vipl2013
   Task   101 k-point     8 on vipl2013
   Task   102 k-point     8 on vipl2013
   Task   103 k-point     9 on vipl2013
   Task   104 k-point     9 on vipl2013
   Task   105 k-point     9 on vipl2013
   Task   106 k-point     9 on vipl2013
   Task   107 k-point     9 on vipl2013
   Task   108 k-point     9 on vipl2013
   Task   109 k-point     9 on vipl2013
   Task   110 k-point     9 on vipl2013
   Task   111 k-point     9 on vipl2013
   Task   112 k-point     9 on vipl2013
   Task   113 k-point     9 on vipl2013
   Task   114 k-point     9 on vipl2013
   Task   115 k-point     9 on vipl2013
   Task   116 k-point    10 on vipl2013
   Task   117 k-point    10 on vipl2013
   Task   118 k-point    10 on vipl2013
   Task   119 k-point    10 on vipl2013
   Task   120 k-point    10 on vipl2013
   Task   121 k-point    10 on vipl2013
   Task   122 k-point    10 on vipl2013
   Task   123 k-point    10 on vipl2013
   Task   124 k-point    10 on vipl2013
   Task   125 k-point    10 on vipl2013
   Task   126 k-point    10 on vipl2013
   Task   127 k-point    10 on vipl2013
  K-point:     1 Tasks:    13 split into     13 X      1 BLACS grid
  Calculating block size based on n_basis =         1620  max_nprow =           13  max_npcol =            3
  ScaLAPACK block size set to:           16
  Allocating        3.164 MB for ovlp_complex
  Allocating        3.164 MB for ham_complex
  Allocating        3.164 MB for eigenvec_complex
  Required Scalapack workspace - INTEGER:            1  REAL:             1  COMPLEX:            1
  Available memory per node after initialize_scalapack [GB]:   1020.04
  Available memory per node after aims_elsi_init_scf [GB]:   1020.03
  Available memory per node after initialize_fixed_grids [GB]:   1020.03
  Partitioning the integration grid into batches with parallel hashing+maxmin method.
  | Number of batches:    14581
  | Maximal batch size:     199
  | Minimal batch size:       1
  | Average batch size:      91.349
  | Standard deviation of batch sizes:      25.082

  Integration load balanced across   128 MPI tasks.
  Work distribution over tasks is as follows:
  Task     0 has      10401 integration points.
  Task     1 has      10405 integration points.
  Task     2 has      10414 integration points.
  Task     3 has      10391 integration points.
  Task     4 has      10382 integration points.
  Task     5 has      10458 integration points.
  Task     6 has      10401 integration points.
  Task     7 has      10407 integration points.
  Task     8 has      10413 integration points.
  Task     9 has      10440 integration points.
  Task    10 has      10440 integration points.
  Task    11 has      10431 integration points.
  Task    12 has      10386 integration points.
  Task    13 has      10388 integration points.
  Task    14 has      10396 integration points.
  Task    15 has      10395 integration points.
  Task    16 has      10375 integration points.
  Task    17 has      10442 integration points.
  Task    18 has      10423 integration points.
  Task    19 has      10406 integration points.
  Task    20 has      10385 integration points.
  Task    21 has      10391 integration points.
  Task    22 has      10404 integration points.
  Task    23 has      10398 integration points.
  Task    24 has      10410 integration points.
  Task    25 has      10402 integration points.
  Task    26 has      10402 integration points.
  Task    27 has      10439 integration points.
  Task    28 has      10391 integration points.
  Task    29 has      10406 integration points.
  Task    30 has      10436 integration points.
  Task    31 has      10404 integration points.
  Task    32 has      10394 integration points.
  Task    33 has      10387 integration points.
  Task    34 has      10412 integration points.
  Task    35 has      10421 integration points.
  Task    36 has      10388 integration points.
  Task    37 has      10406 integration points.
  Task    38 has      10423 integration points.
  Task    39 has      10394 integration points.
  Task    40 has      10408 integration points.
  Task    41 has      10420 integration points.
  Task    42 has      10406 integration points.
  Task    43 has      10364 integration points.
  Task    44 has      10410 integration points.
  Task    45 has      10405 integration points.
  Task    46 has      10396 integration points.
  Task    47 has      10415 integration points.
  Task    48 has      10391 integration points.
  Task    49 has      10415 integration points.
  Task    50 has      10423 integration points.
  Task    51 has      10399 integration points.
  Task    52 has      10394 integration points.
  Task    53 has      10413 integration points.
  Task    54 has      10401 integration points.
  Task    55 has      10390 integration points.
  Task    56 has      10408 integration points.
  Task    57 has      10384 integration points.
  Task    58 has      10418 integration points.
  Task    59 has      10395 integration points.
  Task    60 has      10422 integration points.
  Task    61 has      10404 integration points.
  Task    62 has      10409 integration points.
  Task    63 has      10416 integration points.
  Task    64 has      10381 integration points.
  Task    65 has      10383 integration points.
  Task    66 has      10393 integration points.
  Task    67 has      10398 integration points.
[...]
  | CPU time:        3.905 s, Wall clock time:        3.932 s.
  Removing unitary transformations (pure translations, rotations) from forces on atoms.
  Atomic forces before filtering:
  | Net force on center of mass :  -0.810521E-03  0.591934E-02 -0.697739E-03 eV/A
  Atomic forces after filtering:
  | Net force on center of mass :  -0.446015E-15 -0.356812E-14 -0.249769E-14 eV/A

  Energy and forces in a compact form:
  | Total energy uncorrected      :         -0.239394442685409E+07 eV
  | Total energy corrected        :         -0.239394442685409E+07 eV  <-- do not rely on this value for anything but (periodic) metals
  | Electronic free energy        :         -0.239394442685409E+07 eV
  Total atomic forces (unitary forces cleaned) [eV/Ang]:
  |    1         -0.492127437196848E+00         -0.844374992478353E+00         -0.182657323440748E+01
  |    2          0.366274415045123E+00         -0.591530044216568E+00         -0.733843740940696E+00
  |    3          0.836067613093441E+00         -0.113397307811448E+01          0.245195321798259E+01
  |    4         -0.132613775055772E+01          0.316820333332360E+01         -0.166422292931830E+01
  |    5         -0.796357066816588E+00          0.261896022265731E+00         -0.355072158750495E+00
  |    6          0.774461715400578E+00         -0.207066536902268E+00         -0.604650956968028E+00
  |    7         -0.950258590728245E+00          0.254455173688863E+00          0.778522325251828E+00
  |    8          0.194240398099464E+00          0.754677917474900E+00         -0.271549816812688E-01
  |    9         -0.263614830566754E+01          0.100339528210310E+01          0.264348411039319E+01
  |   10         -0.574756554415060E+00          0.396393884777127E+00         -0.128752747123891E+01
  |   11          0.414042915851812E+00         -0.124390486492987E+01          0.632261623596400E+00
  |   12          0.125662764489247E+01          0.177774766692920E+01          0.279992926053769E+00
  |   13          0.408065476640209E+00         -0.102590522662835E+01          0.268797933360448E+01
  |   14          0.521810940982713E+00          0.800271303890240E+00          0.768834018686408E+00
  |   15         -0.208208311235967E+01         -0.727284580275046E+00          0.144296973174338E+01
  |   16          0.202628836737028E+01          0.100803884993779E+00         -0.541123350279044E+01
  |   17         -0.111681113760467E+01         -0.169040134560374E+01         -0.276082370492220E+00
  |   18         -0.225345183172371E+01          0.190237057214865E+01          0.333720906921665E+01
  |   19          0.203008768577476E+00          0.103982698683878E+01         -0.501280503049091E+00
  |   20         -0.151977287873745E-01         -0.191270435212169E+01         -0.278707273858559E-01
  |   21         -0.941037537719488E+00         -0.114115695829556E+01         -0.686262847196062E+00
  |   22         -0.370797353495252E+01         -0.217427064640698E+01         -0.132373230543001E+01
  |   23          0.268893420391547E+01          0.131065329286252E+01         -0.771359900296559E+00
  |   24          0.331591967034114E+01          0.107123622464581E+01          0.203071789665866E+01
  |   25         -0.734864978617555E+00         -0.322689249868319E+01         -0.348951927621248E+01
  |   26          0.174395572359729E+01          0.144369502614487E+01         -0.138464977831871E+01
  |   27          0.354638691254340E+01          0.514777414538039E+00          0.245462014746510E+01
  |   28          0.212072857576104E+01          0.158084815539737E+01         -0.204381585730754E+01
  |   29         -0.347505151594692E+00          0.282632249376581E+00          0.130886706969875E+01
  |   30         -0.678067114229102E+00          0.179188843613015E+00          0.216285967666061E+00
  |   31         -0.844798608232039E-02          0.715991104653969E+00         -0.118605145096442E+01
  |   32         -0.260221203124054E+00          0.142449165350590E-01          0.813477897608996E+00
  |   33         -0.695251034832788E+00          0.139291447358696E+01          0.247275257421845E+00
  |   34         -0.183487996032851E+00         -0.300017548725203E+01         -0.237936174195533E+01
  |   35         -0.249468488209961E+00          0.254933158811708E+00          0.271368804770174E+00
  |   36         -0.125793712460815E+00         -0.142656986789385E+01          0.275225226988128E+01
  |   37         -0.182040410101327E+01         -0.184030027163723E+01          0.247303036659171E+01
  |   38          0.256115985057353E+01          0.877365077619020E+00         -0.130362762973461E+01
  |   39         -0.203865352870516E+00          0.119622530934421E+01         -0.654626376978602E+00
  |   40         -0.732871782336361E+00         -0.185723213502437E+01         -0.754397192777054E+00
  |   41          0.285668570601319E+00          0.177550050027064E+00          0.433703952099697E+00
  |   42          0.117862324749931E+01          0.120452821013194E+01          0.303371203165499E+00
  |   43         -0.142105839201993E+01         -0.107645909107594E+01          0.592797605759504E-01
  |   44          0.805660345138898E+00          0.213255405666141E+00          0.558838350405575E-01
  |   45         -0.565037524474134E+00          0.123940375146549E+01          0.642102768532835E-01
  |   46          0.864746316257186E+00          0.542090821137363E+00          0.172097443467209E+00
  |   47         -0.164296798514579E+01          0.395793646446700E+00          0.612863280031947E+00
  |   48         -0.615178801739170E+00         -0.296333870819050E+01          0.178745244686222E+01
  |   49         -0.350911366549771E+00          0.205572265084080E+01         -0.244335322366483E+01
  |   50          0.114449283879554E+01         -0.812342596970496E+00          0.543976055121187E+00
  |   51         -0.333577501756729E+00         -0.310112804664678E+01          0.191159701616762E+01
  |   52          0.499251387710795E+00          0.210872916511465E+01         -0.424568559330454E+01
  |   53         -0.254764553536398E+00          0.120459378722320E+00          0.914782855004248E+00
  |   54          0.359669716467155E+00          0.164473097423173E+01          0.931635592482864E+00

  ------------------------------------ 
  Start decomposition of the XC Energy 
  ------------------------------------ 
  X and C from original XC functional choice 
  Hartree-Fock Energy :          0.000000000 Ha              0.000000000 eV
  X Energy            :      -3098.530519589 Ha         -84315.305353509 eV
  C Energy            :        -62.755922465 Ha          -1707.675535857 eV
  XC Energy w/o HF    :      -3161.286442054 Ha         -86022.980889365 eV
  Total XC Energy     :      -3161.286442054 Ha         -86022.980889365 eV
  ------------------------------------ 
  LDA X and C from self-consistent density 
  X Energy LDA        :      -2926.794191322 Ha         -79642.122092418 eV
  C Energy LDA        :       -115.409930471 Ha          -3140.463993171 eV
  ------------------------------------ 
  End decomposition of the XC Energy 
  ------------------------------------ 

------------------------------------------------------------

  | Chemical Potential                          :    -5.07003078 eV
  | Note that, for insulating systems, the printed 'chemical potential' value is not uniquely defined.
  | It can be anywhere in the energy gap, as long as it correctly separates occupied and unoccupied states.
  | In systems with a gap, the physically relevant chemical potential is the VBM or HOMO.

  Writing energy levels:
  | Potential vacuum level, "upper" slab surface    :    -0.03160215 eV
  | Potential vacuum level, "lower" slab surface    :    -0.11754104 eV
  | Work function ("upper" slab surface)            :     5.03842862 eV
  | Work function ("lower" slab surface)            :     4.95248974 eV
  *** Band gap may exist, work functions will also be defined using VBM and CBM.
  | VBM (reference: upper vacuum level)             :     5.64602270 eV
  | Work function ("upper" surface, reference: VBM) :     5.64602270 eV
  | Work function ("lower" surface, reference: VBM) :     5.56008382 eV
  | CBM (reference: upper vacuum level)             :     4.43083454 eV
  | Work function ("upper" surface, reference: CBM) :     4.43083454 eV
  | Work function ("lower" surface, reference: CBM) :     4.34489566 eV

  -------------------------------------------------------------------
  Writing the requested band structure output (ScaLAPACK version):
  -------------------------------------------------------------------


  Integrating Hamiltonian matrix: batch-based integration.
  Time summed over all CPUs for integration: real work      143.063 s, elapsed      153.716 s
           1          10
  Calculating k-point    1 to   10 in band :
  Overlap matrix is not singular
  | Lowest and highest eigenvalues :  0.3409E-03,  0.8293E+01
  Finished singularity check of overlap matrix
  | Time :     0.277 s
  Starting ELPA eigensolver
  Finished Cholesky decomposition
  | Time :     0.091 s
  Finished transformation to standard eigenproblem
  | Time :     0.102 s
  Finished solving standard eigenproblem
  | Time :     0.542 s
  Finished back-transformation of eigenvectors
  | Time :     0.050 s

 Writing k-points            1  to           10  of band            1
  "Band gap" along reciprocal space direction number:    1
  | Lowest unoccupied state:      -4.44798646 eV
  | Highest occupied state :      -5.68245010 eV
  | Energy difference      :       1.23446364 eV

          11          20
  Calculating k-point   11 to   20 in band :
  Overlap matrix is not singular
  | Lowest and highest eigenvalues :  0.3821E-03,  0.9299E+01
  Finished singularity check of overlap matrix
  | Time :     0.280 s
  Starting ELPA eigensolver
  Finished Cholesky decomposition
  | Time :     0.092 s
  Finished transformation to standard eigenproblem
  | Time :     0.100 s
  Finished solving standard eigenproblem
  | Time :     0.544 s
  Finished back-transformation of eigenvectors
  | Time :     0.050 s

 Writing k-points            1  to            1  of band            1
 Writing k-points            2  to            7  of band            2
 Writing k-points            8  to           10  of band            3
  "Band gap" along reciprocal space direction number:    1
  | Lowest unoccupied state:      -4.46243670 eV
  | Highest occupied state :      -5.67762486 eV
  | Energy difference      :       1.21518816 eV

          21          26
  Calculating k-point   21 to   26 in band :
  Overlap matrix is not singular
  | Lowest and highest eigenvalues :  0.3518E-03,  0.8422E+01
  Finished singularity check of overlap matrix
  | Time :     0.279 s
  Starting ELPA eigensolver
  Finished Cholesky decomposition
  | Time :     0.091 s
  Finished transformation to standard eigenproblem
  | Time :     0.101 s
  Finished solving standard eigenproblem
  | Time :     0.545 s
  Finished back-transformation of eigenvectors
  | Time :     0.051 s

 Writing k-points            1  to            6  of band            3
  "Band gap" along reciprocal space direction number:    3
  | Lowest unoccupied state:      -4.41860539 eV
  | Highest occupied state :      -5.99889266 eV
  | Energy difference      :       1.58028727 eV

  "Band gap" of total set of bands:
  | Lowest unoccupied state:      -4.46243670 eV
  | Highest occupied state :      -5.67762486 eV
  | Energy difference      :       1.21518816 eV


  Band Structure                                          :  max(cpu_time) wall_clock(cpu1)
  | Total Time                                            :          4.663            4.698
------------------------------------------------------------

------------------------------------------------------------------------------
  Final output of selected total energy values:

  The following output summarizes some interesting total energy values
  at the end of a run (AFTER all relaxation, molecular dynamics, etc.).

  | Total energy of the DFT / Hartree-Fock s.c.f. calculation      :       -2393944.426854086 eV
  | Final zero-broadening corrected energy (caution - metals only) :       -2393944.426854086 eV
  | For reference only, the value of 1 Hartree used in FHI-aims is :             27.211384500 eV
  | For reference only, the overall average (free atom contribution
  | + realspace contribution) of the electrostatic potential after
  | s.c.f. convergence is                                          :             -2.255715504 eV

  Before relying on these values, please be sure to understand exactly which
  total energy value is referred to by a given number. Different objects may
  all carry the same name 'total energy'. Definitions:

  Total energy of the DFT / Hartree-Fock s.c.f. calculation:
  | Note that this energy does not include ANY quantities calculated after the
  | s.c.f. cycle, in particular not ANY RPA, MP2, etc. many-body perturbation terms.

  Final zero-broadening corrected energy:
  | For metallic systems only, a broadening of the occupation numbers at the Fermi
  | level can be extrapolated back to zero broadening by an electron-gas inspired
  | formula. For all systems that are not real metals, this value can be
  | meaningless and should be avoided.

------------------------------------------------------------------------------
  Methods described in the following list of references were used in this FHI-aims run.
  If you publish the results, please make sure to cite these reference if they apply.
  FHI-aims is an academic code, and for our developers (often, Ph.D. students
  and postdocs), scientific credit in the community is essential.
  Thank you for helping us!

  For any use of FHI-aims, please cite:

    Volker Blum, Ralf Gehrke, Felix Hanke, Paula Havu, Ville Havu,
    Xinguo Ren, Karsten Reuter, and Matthias Scheffler
    'Ab initio molecular simulations with numeric atom-centered orbitals'
    Computer Physics Communications 180, 2175-2196 (2009)
    http://doi.org/10.1016/j.cpc.2009.06.022


  For Hartree-Fock, hybrid functionals, or many-body perturbation theory used in your run, please cite:

    Xinguo Ren, Patrick Rinke, Volker Blum, Juergen Wieferink, Alex Tkatchenko,
    Andrea Sanfilippo, Karsten Reuter, and Matthias Scheffler,
    'Resolution-of-identity approach to Hartree-Fock, hybrid density functionals,
    RPA, MP2, and GW with numeric atom-centered orbital basis functions'
    New Journal of Physics 14, 053020 (2012).
    http://doi.org/10.1088/1367-2630/14/5/053020


  The provided symmetry information was generated with SPGlib:

    Atsushi Togo, Yusuke Seto, Dimitar Pashov
    SPGlib 1.7.3 obtained from http://spglib.sourceforge.net
    Licence: New BSD license
    Copyright (C) 2008 Atsushi Togo


  The ELSI infrastructure was used in your run to solve the Kohn-Sham electronic structure.
  Please check out https://wordpress.elsi-interchange.org to learn more.
  If scalability is important for your project, please acknowledge ELSI by citing:

    V. W-z. Yu, F. Corsetti, A. Garcia, W. P. Huhn, M. Jacquelin, W. Jia,
    B. Lange, L. Lin, J. Lu, W. Mi, A. Seifitokaldani, A. Vazquez-Mayagoitia,
    C. Yang, H. Yang, and V. Blum
    'ELSI: A unified software interface for Kohn-Sham electronic structure solvers'
    Computer Physics Communications 222, 267-285 (2018).
    http://doi.org/10.1016/j.cpc.2017.09.007


  For the real-space grid partitioning and parallelization used in this calculation, please cite:

    Ville Havu, Volker Blum, Paula Havu, and Matthias Scheffler,
    'Efficient O(N) integration for all-electron electronic structure calculation'
    'using numerically tabulated basis functions'
    Journal of Computational Physics 228, 8367-8379 (2009).
    http://doi.org/10.1016/j.jcp.2009.08.008


  The high-level electronic structure method used in your calculation
  employed our efficient localized resolution of identity for the Coulomb operator.
  Some calculations, especially large-scale hybrid density functional theory,
  are only possible thanks to this development. For this feature, please cite:

    Arvid Ihrig, Juergen Wieferink, Igor Ying Zhang, Matti Ropo, Xinguo Ren,
    Patrick Rinke, Matthias Scheffler, and Volker Blum,
    'Accurate localized resolution of identity approach for linear-scaling
    hybrid density functionals and for many-body perturbation theory'
    New Journal of Physics 117, 093020 (2015).
    http://doi.org/10.1088/1367-2630/17/9/093020

  Of course, there are many other important community references, e.g., those cited in the
  above references. Our list is limited to references that describe implementations in the
  FHI-aims code. The reason is purely practical (length of this list) - please credit others as well.

------------------------------------------------------------
          Leaving FHI-aims.
          Date     :  20250819, Time     :  110203.753

          Computational steps:
          | Number of self-consistency cycles          :           26
          | Number of SCF (re)initializations          :            1

          Detailed time accounting                     :  max(cpu_time)    wall_clock(cpu1)
          | Total time                                  :     1884.809 s        1899.705 s
          | Preparation time                            :        0.255 s           0.256 s
          | Boundary condition initalization            :        0.134 s           0.135 s
          | Grid partitioning                           :        1.167 s           1.171 s
          | Preloading free-atom quantities on grid     :        0.378 s           0.383 s
          | Free-atom superposition energy              :        0.050 s           0.050 s
          | Total time for integrations                 :       35.582 s          35.809 s
          | Product basis setup: Total time             :        0.000 s           0.000 s
          | Product basis: | 2-center integrations     :(       0.000 s)  (       0.000 s)
          | Product basis: | LVL 3-center & coefficient:(       0.000 s)  (       0.000 s)
          | Total time for solution of K.-S. equations  :       20.353 s          20.462 s
          | Total time for density & force components   :       76.657 s          77.281 s
          | Total time for mixing & preconditioning     :       35.214 s          35.374 s
          | Total time for Hartree multipole update     :        0.521 s           0.522 s
          | Total time for Hartree multipole sum        :        7.345 s           7.390 s
          | Total time for total energy evaluation      :        0.003 s           0.001 s
          | Total time NSC force correction             :        2.199 s           2.213 s
          | Total time for scaled ZORA corrections      :        0.000 s           0.000 s
          | Total time for vdW-like corrections         :        3.905 s           3.932 s
          | Total time for band structures, DOS         :        4.670 s           4.698 s

          Partial memory accounting:
          | Residual value for overall tracked memory usage across tasks:     0.000000 MB (should be 0.000000 MB)
          | Peak values for overall tracked memory usage:
          |   Minimum:      116.055 MB (on task  75 after allocating d_wave)
          |   Maximum:      122.271 MB (on task 119 after allocating d_wave)
          |   Average:      118.598 MB
          | Largest tracked array allocation:
          |   Minimum:       25.395 MB (overlap_matrix on task   0)
          |   Maximum:       25.395 MB (overlap_matrix on task   0)
          |   Average:       25.395 MB
          Note:  These values currently only include a subset of arrays which are explicitly tracked.
          The "true" memory usage will be greater.

          Have a nice day.
------------------------------------------------------------
